 Entering Link 1 = C:\G09W\l1.exe PID=      1224.
  
 Copyright (c) 1988,1990,1992,1993,1995,1998,2003,2009,2013,
            Gaussian, Inc.  All Rights Reserved.
  
 This is part of the Gaussian(R) 09 program.  It is based on
 the Gaussian(R) 03 system (copyright 2003, Gaussian, Inc.),
 the Gaussian(R) 98 system (copyright 1998, Gaussian, Inc.),
 the Gaussian(R) 94 system (copyright 1995, Gaussian, Inc.),
 the Gaussian 92(TM) system (copyright 1992, Gaussian, Inc.),
 the Gaussian 90(TM) system (copyright 1990, Gaussian, Inc.),
 the Gaussian 88(TM) system (copyright 1988, Gaussian, Inc.),
 the Gaussian 86(TM) system (copyright 1986, Carnegie Mellon
 University), and the Gaussian 82(TM) system (copyright 1983,
 Carnegie Mellon University). Gaussian is a federally registered
 trademark of Gaussian, Inc.
  
 This software contains proprietary and confidential information,
 including trade secrets, belonging to Gaussian, Inc.
  
 This software is provided under written license and may be
 used, copied, transmitted, or stored only in accord with that
 written license.
  
 The following legend is applicable only to US Government
 contracts under FAR:
  
                    RESTRICTED RIGHTS LEGEND
  
 Use, reproduction and disclosure by the US Government is
 subject to restrictions as set forth in subparagraphs (a)
 and (c) of the Commercial Computer Software - Restricted
 Rights clause in FAR 52.227-19.
  
 Gaussian, Inc.
 340 Quinnipiac St., Bldg. 40, Wallingford CT 06492
  
  
 ---------------------------------------------------------------
 Warning -- This program may not be used in any manner that
 competes with the business of Gaussian, Inc. or will provide
 assistance to any competitor of Gaussian, Inc.  The licensee
 of this program is prohibited from giving any competitor of
 Gaussian, Inc. access to this program.  By using this program,
 the user acknowledges that Gaussian, Inc. is engaged in the
 business of creating and licensing software in the field of
 computational chemistry and represents and warrants to the
 licensee that it is not a competitor of Gaussian, Inc. and that
 it will not use this program in any manner prohibited above.
 ---------------------------------------------------------------
  

 Cite this work as:
 Gaussian 09, Revision D.01,
 M. J. Frisch, G. W. Trucks, H. B. Schlegel, G. E. Scuseria, 
 M. A. Robb, J. R. Cheeseman, G. Scalmani, V. Barone, B. Mennucci, 
 G. A. Petersson, H. Nakatsuji, M. Caricato, X. Li, H. P. Hratchian, 
 A. F. Izmaylov, J. Bloino, G. Zheng, J. L. Sonnenberg, M. Hada, 
 M. Ehara, K. Toyota, R. Fukuda, J. Hasegawa, M. Ishida, T. Nakajima, 
 Y. Honda, O. Kitao, H. Nakai, T. Vreven, J. A. Montgomery, Jr., 
 J. E. Peralta, F. Ogliaro, M. Bearpark, J. J. Heyd, E. Brothers, 
 K. N. Kudin, V. N. Staroverov, T. Keith, R. Kobayashi, J. Normand, 
 K. Raghavachari, A. Rendell, J. C. Burant, S. S. Iyengar, J. Tomasi, 
 M. Cossi, N. Rega, J. M. Millam, M. Klene, J. E. Knox, J. B. Cross, 
 V. Bakken, C. Adamo, J. Jaramillo, R. Gomperts, R. E. Stratmann, 
 O. Yazyev, A. J. Austin, R. Cammi, C. Pomelli, J. W. Ochterski, 
 R. L. Martin, K. Morokuma, V. G. Zakrzewski, G. A. Voth, 
 P. Salvador, J. J. Dannenberg, S. Dapprich, A. D. Daniels, 
 O. Farkas, J. B. Foresman, J. V. Ortiz, J. Cioslowski, 
 and D. J. Fox, Gaussian, Inc., Wallingford CT, 2013.
 
 ******************************************
 Gaussian 09:  EM64W-G09RevD.01 13-Apr-2013
                18-Sep-2019 
 ******************************************
 %chk=C:\Users\teacher\Desktop\Prof-Ana-2019\4S-1S-8S-7S_Ana_MCMM\4S-1S-8S-7S_42.
 chk
 %mem=16GB
 %nprocshared=16
 Will use up to   16 processors via shared memory.
 ---------------------------
 # opt pm6 geom=connectivity
 ---------------------------
 1/14=-1,18=20,19=15,26=1,38=1,57=2/1,3;
 2/9=110,12=2,17=6,18=5,40=1/2;
 3/5=2,16=1,25=1,41=3900000,71=1/1,2,3;
 4/35=1/1;
 5/5=2,35=1,38=5/2;
 6/7=2,8=2,9=2,10=2,28=1/1;
 7//1,2,3,16;
 1/14=-1,18=20,19=15,26=1/3(2);
 2/9=110/2;
 99//99;
 2/9=110/2;
 3/5=2,16=1,25=1,41=3900000,71=1,135=20/1,2,3;
 4/5=5,16=3,35=1/1;
 5/5=2,35=1,38=5/2;
 7//1,2,3,16;
 1/14=-1,18=20,19=15,26=1/3(-5);
 2/9=110/2;
 6/7=2,8=2,9=2,10=2,19=2,28=1/1;
 99/9=1/99;
 -------------
 Molecule Name
 -------------
 Symbolic Z-matrix:
 Charge =  0 Multiplicity = 1
 C                    -4.2373    2.8534   -1.6916 
 C                    -2.7465    2.8361   -2.1262 
 C                    -2.2493    1.5021   -2.6853 
 C                    -3.1985    0.7498   -3.6439 
 C                    -4.6862    1.0032   -3.4025 
 C                    -5.1147    1.9417   -2.5316 
 O                    -1.97      0.7569   -1.5121 
 C                    -1.4389    1.5696   -0.5813 
 C                    -1.7965    2.9359   -0.9569 
 C                    -5.6459    0.1146   -4.2057 
 C                    -7.0007    0.7568   -4.6048 
 C                    -6.8613    2.0216   -5.4899 
 C                    -8.1784    2.6967   -5.9222 
 C                    -9.0295    3.2204   -4.7601 
 O                    -8.9583    1.7896   -6.662 
 C                    -5.8748   -1.2335   -3.4974 
 O                    -0.7754    1.2013    0.3844 
 C                    -1.3357    4.0305   -0.3223 
 H                    -4.6206    3.8739   -1.7289 
 H                    -4.3476    2.5318   -0.6539 
 H                    -2.5799    3.6152   -2.872 
 H                    -1.3014    1.6504   -3.2106 
 H                    -2.9832   -0.318    -3.5958 
 H                    -2.9757    1.0535   -4.6665 
 H                    -6.1801    2.0496   -2.3953 
 H                    -5.1389   -0.1069   -5.1475 
 H                    -7.585     0.976    -3.7113 
 H                    -7.5829    0.0156   -5.1544 
 H                    -6.2984    1.7635   -6.3885 
 H                    -6.2519    2.7649   -4.9755 
 H                    -7.939     3.5343   -6.5811 
 H                    -8.4651    3.926    -4.1507 
 H                    -9.911     3.7441   -5.1321 
 H                    -9.3765    2.4199   -4.1073 
 H                    -9.1663    1.042    -6.0978 
 H                    -4.9337   -1.7491   -3.3031 
 H                    -6.3742   -1.096    -2.5375 
 H                    -6.4901   -1.9039   -4.0984 
 H                    -0.6554    3.9522    0.5167 
 H                    -1.6322    5.0223   -0.6301 
 

 GradGradGradGradGradGradGradGradGradGradGradGradGradGradGradGradGradGrad
 Berny optimization.
 Initialization pass.
                           ----------------------------
                           !    Initial Parameters    !
                           ! (Angstroms and Degrees)  !
 --------------------------                            --------------------------
 ! Name  Definition              Value          Derivative Info.                !
 --------------------------------------------------------------------------------
 ! R1    R(1,2)                  1.553          estimate D2E/DX2                !
 ! R2    R(1,6)                  1.5188         estimate D2E/DX2                !
 ! R3    R(1,19)                 1.0907         estimate D2E/DX2                !
 ! R4    R(1,20)                 1.092          estimate D2E/DX2                !
 ! R5    R(2,3)                  1.5295         estimate D2E/DX2                !
 ! R6    R(2,9)                  1.5099         estimate D2E/DX2                !
 ! R7    R(2,21)                 1.0913         estimate D2E/DX2                !
 ! R8    R(3,4)                  1.5446         estimate D2E/DX2                !
 ! R9    R(3,7)                  1.4176         estimate D2E/DX2                !
 ! R10   R(3,22)                 1.0938         estimate D2E/DX2                !
 ! R11   R(4,5)                  1.5283         estimate D2E/DX2                !
 ! R12   R(4,23)                 1.0904         estimate D2E/DX2                !
 ! R13   R(4,24)                 1.0898         estimate D2E/DX2                !
 ! R14   R(5,6)                  1.3501         estimate D2E/DX2                !
 ! R15   R(5,10)                 1.5348         estimate D2E/DX2                !
 ! R16   R(6,25)                 1.0795         estimate D2E/DX2                !
 ! R17   R(7,8)                  1.345          estimate D2E/DX2                !
 ! R18   R(8,9)                  1.4614         estimate D2E/DX2                !
 ! R19   R(8,17)                 1.2282         estimate D2E/DX2                !
 ! R20   R(9,18)                 1.3466         estimate D2E/DX2                !
 ! R21   R(10,11)                1.5515         estimate D2E/DX2                !
 ! R22   R(10,16)                1.54           estimate D2E/DX2                !
 ! R23   R(10,26)                1.0923         estimate D2E/DX2                !
 ! R24   R(11,12)                1.55           estimate D2E/DX2                !
 ! R25   R(11,27)                1.0899         estimate D2E/DX2                !
 ! R26   R(11,28)                1.0911         estimate D2E/DX2                !
 ! R27   R(12,13)                1.5419         estimate D2E/DX2                !
 ! R28   R(12,29)                1.0913         estimate D2E/DX2                !
 ! R29   R(12,30)                1.0902         estimate D2E/DX2                !
 ! R30   R(13,14)                1.5327         estimate D2E/DX2                !
 ! R31   R(13,15)                1.4065         estimate D2E/DX2                !
 ! R32   R(13,31)                1.0923         estimate D2E/DX2                !
 ! R33   R(14,32)                1.0899         estimate D2E/DX2                !
 ! R34   R(14,33)                1.0907         estimate D2E/DX2                !
 ! R35   R(14,34)                1.0897         estimate D2E/DX2                !
 ! R36   R(15,35)                0.9594         estimate D2E/DX2                !
 ! R37   R(16,36)                1.0905         estimate D2E/DX2                !
 ! R38   R(16,37)                1.0907         estimate D2E/DX2                !
 ! R39   R(16,38)                1.0905         estimate D2E/DX2                !
 ! R40   R(18,39)                1.083          estimate D2E/DX2                !
 ! R41   R(18,40)                1.08           estimate D2E/DX2                !
 ! A1    A(2,1,6)              113.1486         estimate D2E/DX2                !
 ! A2    A(2,1,19)             109.7672         estimate D2E/DX2                !
 ! A3    A(2,1,20)             111.0775         estimate D2E/DX2                !
 ! A4    A(6,1,19)             109.8589         estimate D2E/DX2                !
 ! A5    A(6,1,20)             106.8846         estimate D2E/DX2                !
 ! A6    A(19,1,20)            105.8158         estimate D2E/DX2                !
 ! A7    A(1,2,3)              115.0924         estimate D2E/DX2                !
 ! A8    A(1,2,9)              112.7397         estimate D2E/DX2                !
 ! A9    A(1,2,21)             109.2595         estimate D2E/DX2                !
 ! A10   A(3,2,9)               97.8284         estimate D2E/DX2                !
 ! A11   A(3,2,21)             108.8579         estimate D2E/DX2                !
 ! A12   A(9,2,21)             112.7061         estimate D2E/DX2                !
 ! A13   A(2,3,4)              116.8648         estimate D2E/DX2                !
 ! A14   A(2,3,7)              102.7092         estimate D2E/DX2                !
 ! A15   A(2,3,22)             109.8164         estimate D2E/DX2                !
 ! A16   A(4,3,7)              112.2497         estimate D2E/DX2                !
 ! A17   A(4,3,22)             107.4895         estimate D2E/DX2                !
 ! A18   A(7,3,22)             107.3356         estimate D2E/DX2                !
 ! A19   A(3,4,5)              114.7974         estimate D2E/DX2                !
 ! A20   A(3,4,23)             109.1627         estimate D2E/DX2                !
 ! A21   A(3,4,24)             108.7227         estimate D2E/DX2                !
 ! A22   A(5,4,23)             110.3418         estimate D2E/DX2                !
 ! A23   A(5,4,24)             107.5192         estimate D2E/DX2                !
 ! A24   A(23,4,24)            105.8992         estimate D2E/DX2                !
 ! A25   A(4,5,6)              121.7411         estimate D2E/DX2                !
 ! A26   A(4,5,10)             115.4681         estimate D2E/DX2                !
 ! A27   A(6,5,10)             122.7892         estimate D2E/DX2                !
 ! A28   A(1,6,5)              126.2058         estimate D2E/DX2                !
 ! A29   A(1,6,25)             116.1251         estimate D2E/DX2                !
 ! A30   A(5,6,25)             117.6558         estimate D2E/DX2                !
 ! A31   A(3,7,8)              109.4445         estimate D2E/DX2                !
 ! A32   A(7,8,9)              106.8839         estimate D2E/DX2                !
 ! A33   A(7,8,17)             125.1892         estimate D2E/DX2                !
 ! A34   A(9,8,17)             127.9249         estimate D2E/DX2                !
 ! A35   A(2,9,8)              106.9299         estimate D2E/DX2                !
 ! A36   A(2,9,18)             129.3472         estimate D2E/DX2                !
 ! A37   A(8,9,18)             123.7193         estimate D2E/DX2                !
 ! A38   A(5,10,11)            116.1658         estimate D2E/DX2                !
 ! A39   A(5,10,16)            111.0429         estimate D2E/DX2                !
 ! A40   A(5,10,26)            106.1638         estimate D2E/DX2                !
 ! A41   A(11,10,16)           110.5406         estimate D2E/DX2                !
 ! A42   A(11,10,26)           105.513          estimate D2E/DX2                !
 ! A43   A(16,10,26)           106.7413         estimate D2E/DX2                !
 ! A44   A(10,11,12)           113.9607         estimate D2E/DX2                !
 ! A45   A(10,11,27)           109.9081         estimate D2E/DX2                !
 ! A46   A(10,11,28)           108.3211         estimate D2E/DX2                !
 ! A47   A(12,11,27)           110.6245         estimate D2E/DX2                !
 ! A48   A(12,11,28)           108.3417         estimate D2E/DX2                !
 ! A49   A(27,11,28)           105.2795         estimate D2E/DX2                !
 ! A50   A(11,12,13)           116.1391         estimate D2E/DX2                !
 ! A51   A(11,12,29)           108.8804         estimate D2E/DX2                !
 ! A52   A(11,12,30)           109.7059         estimate D2E/DX2                !
 ! A53   A(13,12,29)           108.258          estimate D2E/DX2                !
 ! A54   A(13,12,30)           108.1357         estimate D2E/DX2                !
 ! A55   A(29,12,30)           105.1563         estimate D2E/DX2                !
 ! A56   A(12,13,14)           114.291          estimate D2E/DX2                !
 ! A57   A(12,13,15)           109.8002         estimate D2E/DX2                !
 ! A58   A(12,13,31)           108.5218         estimate D2E/DX2                !
 ! A59   A(14,13,15)           108.1348         estimate D2E/DX2                !
 ! A60   A(14,13,31)           108.4861         estimate D2E/DX2                !
 ! A61   A(15,13,31)           107.3851         estimate D2E/DX2                !
 ! A62   A(13,14,32)           110.9532         estimate D2E/DX2                !
 ! A63   A(13,14,33)           110.7472         estimate D2E/DX2                !
 ! A64   A(13,14,34)           112.3371         estimate D2E/DX2                !
 ! A65   A(32,14,33)           107.3602         estimate D2E/DX2                !
 ! A66   A(32,14,34)           107.7913         estimate D2E/DX2                !
 ! A67   A(33,14,34)           107.4387         estimate D2E/DX2                !
 ! A68   A(13,15,35)           108.2663         estimate D2E/DX2                !
 ! A69   A(10,16,36)           111.5658         estimate D2E/DX2                !
 ! A70   A(10,16,37)           111.2523         estimate D2E/DX2                !
 ! A71   A(10,16,38)           111.6261         estimate D2E/DX2                !
 ! A72   A(36,16,37)           107.3327         estimate D2E/DX2                !
 ! A73   A(36,16,38)           107.1246         estimate D2E/DX2                !
 ! A74   A(37,16,38)           107.7081         estimate D2E/DX2                !
 ! A75   A(9,18,39)            121.4192         estimate D2E/DX2                !
 ! A76   A(9,18,40)            121.2156         estimate D2E/DX2                !
 ! A77   A(39,18,40)           117.3651         estimate D2E/DX2                !
 ! D1    D(6,1,2,3)            -32.1971         estimate D2E/DX2                !
 ! D2    D(6,1,2,9)           -143.2568         estimate D2E/DX2                !
 ! D3    D(6,1,2,21)            90.6009         estimate D2E/DX2                !
 ! D4    D(19,1,2,3)          -155.3059         estimate D2E/DX2                !
 ! D5    D(19,1,2,9)            93.6344         estimate D2E/DX2                !
 ! D6    D(19,1,2,21)          -32.5079         estimate D2E/DX2                !
 ! D7    D(20,1,2,3)            88.0219         estimate D2E/DX2                !
 ! D8    D(20,1,2,9)           -23.0378         estimate D2E/DX2                !
 ! D9    D(20,1,2,21)         -149.1801         estimate D2E/DX2                !
 ! D10   D(2,1,6,5)             12.2122         estimate D2E/DX2                !
 ! D11   D(2,1,6,25)          -169.1516         estimate D2E/DX2                !
 ! D12   D(19,1,6,5)           135.2702         estimate D2E/DX2                !
 ! D13   D(19,1,6,25)          -46.0935         estimate D2E/DX2                !
 ! D14   D(20,1,6,5)          -110.3701         estimate D2E/DX2                !
 ! D15   D(20,1,6,25)           68.2661         estimate D2E/DX2                !
 ! D16   D(1,2,3,4)             41.7789         estimate D2E/DX2                !
 ! D17   D(1,2,3,7)            -81.544          estimate D2E/DX2                !
 ! D18   D(1,2,3,22)           164.5056         estimate D2E/DX2                !
 ! D19   D(9,2,3,4)            161.4634         estimate D2E/DX2                !
 ! D20   D(9,2,3,7)             38.1405         estimate D2E/DX2                !
 ! D21   D(9,2,3,22)           -75.8099         estimate D2E/DX2                !
 ! D22   D(21,2,3,4)           -81.2336         estimate D2E/DX2                !
 ! D23   D(21,2,3,7)           155.4435         estimate D2E/DX2                !
 ! D24   D(21,2,3,22)           41.4931         estimate D2E/DX2                !
 ! D25   D(1,2,9,8)             93.9533         estimate D2E/DX2                !
 ! D26   D(1,2,9,18)           -85.3749         estimate D2E/DX2                !
 ! D27   D(3,2,9,8)            -27.4979         estimate D2E/DX2                !
 ! D28   D(3,2,9,18)           153.1739         estimate D2E/DX2                !
 ! D29   D(21,2,9,8)          -141.7783         estimate D2E/DX2                !
 ! D30   D(21,2,9,18)           38.8935         estimate D2E/DX2                !
 ! D31   D(2,3,4,5)            -28.9962         estimate D2E/DX2                !
 ! D32   D(2,3,4,23)          -153.4638         estimate D2E/DX2                !
 ! D33   D(2,3,4,24)            91.4489         estimate D2E/DX2                !
 ! D34   D(7,3,4,5)             89.2781         estimate D2E/DX2                !
 ! D35   D(7,3,4,23)           -35.1895         estimate D2E/DX2                !
 ! D36   D(7,3,4,24)          -150.2768         estimate D2E/DX2                !
 ! D37   D(22,3,4,5)          -152.9177         estimate D2E/DX2                !
 ! D38   D(22,3,4,23)           82.6147         estimate D2E/DX2                !
 ! D39   D(22,3,4,24)          -32.4726         estimate D2E/DX2                !
 ! D40   D(2,3,7,8)            -37.9989         estimate D2E/DX2                !
 ! D41   D(4,3,7,8)           -164.3526         estimate D2E/DX2                !
 ! D42   D(22,3,7,8)            77.7519         estimate D2E/DX2                !
 ! D43   D(3,4,5,6)              8.0129         estimate D2E/DX2                !
 ! D44   D(3,4,5,10)          -171.5268         estimate D2E/DX2                !
 ! D45   D(23,4,5,6)           131.8565         estimate D2E/DX2                !
 ! D46   D(23,4,5,10)          -47.6832         estimate D2E/DX2                !
 ! D47   D(24,4,5,6)          -113.0936         estimate D2E/DX2                !
 ! D48   D(24,4,5,10)           67.3667         estimate D2E/DX2                !
 ! D49   D(4,5,6,1)              0.0046         estimate D2E/DX2                !
 ! D50   D(4,5,6,25)          -178.613          estimate D2E/DX2                !
 ! D51   D(10,5,6,1)           179.5103         estimate D2E/DX2                !
 ! D52   D(10,5,6,25)            0.8926         estimate D2E/DX2                !
 ! D53   D(4,5,10,11)         -148.1618         estimate D2E/DX2                !
 ! D54   D(4,5,10,16)           84.4012         estimate D2E/DX2                !
 ! D55   D(4,5,10,26)          -31.2471         estimate D2E/DX2                !
 ! D56   D(6,5,10,11)           32.3038         estimate D2E/DX2                !
 ! D57   D(6,5,10,16)          -95.1332         estimate D2E/DX2                !
 ! D58   D(6,5,10,26)          149.2186         estimate D2E/DX2                !
 ! D59   D(3,7,8,9)             19.7887         estimate D2E/DX2                !
 ! D60   D(3,7,8,17)          -159.7314         estimate D2E/DX2                !
 ! D61   D(7,8,9,2)              6.8313         estimate D2E/DX2                !
 ! D62   D(7,8,9,18)          -173.7933         estimate D2E/DX2                !
 ! D63   D(17,8,9,2)          -173.666          estimate D2E/DX2                !
 ! D64   D(17,8,9,18)            5.7094         estimate D2E/DX2                !
 ! D65   D(2,9,18,39)          179.5567         estimate D2E/DX2                !
 ! D66   D(2,9,18,40)           -0.3445         estimate D2E/DX2                !
 ! D67   D(8,9,18,39)            0.3294         estimate D2E/DX2                !
 ! D68   D(8,9,18,40)         -179.5718         estimate D2E/DX2                !
 ! D69   D(5,10,11,12)          60.095          estimate D2E/DX2                !
 ! D70   D(5,10,11,27)         -64.7182         estimate D2E/DX2                !
 ! D71   D(5,10,11,28)        -179.2477         estimate D2E/DX2                !
 ! D72   D(16,10,11,12)       -172.22           estimate D2E/DX2                !
 ! D73   D(16,10,11,27)         62.9668         estimate D2E/DX2                !
 ! D74   D(16,10,11,28)        -51.5627         estimate D2E/DX2                !
 ! D75   D(26,10,11,12)        -57.1806         estimate D2E/DX2                !
 ! D76   D(26,10,11,27)        178.0062         estimate D2E/DX2                !
 ! D77   D(26,10,11,28)         63.4767         estimate D2E/DX2                !
 ! D78   D(5,10,16,36)         -55.5432         estimate D2E/DX2                !
 ! D79   D(5,10,16,37)          64.2874         estimate D2E/DX2                !
 ! D80   D(5,10,16,38)        -175.3636         estimate D2E/DX2                !
 ! D81   D(11,10,16,36)        174.0123         estimate D2E/DX2                !
 ! D82   D(11,10,16,37)        -66.1571         estimate D2E/DX2                !
 ! D83   D(11,10,16,38)         54.1919         estimate D2E/DX2                !
 ! D84   D(26,10,16,36)         59.7469         estimate D2E/DX2                !
 ! D85   D(26,10,16,37)        179.5775         estimate D2E/DX2                !
 ! D86   D(26,10,16,38)        -60.0735         estimate D2E/DX2                !
 ! D87   D(10,11,12,13)        179.6952         estimate D2E/DX2                !
 ! D88   D(10,11,12,29)         57.2384         estimate D2E/DX2                !
 ! D89   D(10,11,12,30)        -57.344          estimate D2E/DX2                !
 ! D90   D(27,11,12,13)        -55.8747         estimate D2E/DX2                !
 ! D91   D(27,11,12,29)       -178.3316         estimate D2E/DX2                !
 ! D92   D(27,11,12,30)         67.0861         estimate D2E/DX2                !
 ! D93   D(28,11,12,13)         59.0495         estimate D2E/DX2                !
 ! D94   D(28,11,12,29)        -63.4073         estimate D2E/DX2                !
 ! D95   D(28,11,12,30)       -177.9897         estimate D2E/DX2                !
 ! D96   D(11,12,13,14)         61.9071         estimate D2E/DX2                !
 ! D97   D(11,12,13,15)        -59.7904         estimate D2E/DX2                !
 ! D98   D(11,12,13,31)       -176.8894         estimate D2E/DX2                !
 ! D99   D(29,12,13,14)       -175.3094         estimate D2E/DX2                !
 ! D100  D(29,12,13,15)         62.9932         estimate D2E/DX2                !
 ! D101  D(29,12,13,31)        -54.1059         estimate D2E/DX2                !
 ! D102  D(30,12,13,14)        -61.871          estimate D2E/DX2                !
 ! D103  D(30,12,13,15)        176.4316         estimate D2E/DX2                !
 ! D104  D(30,12,13,31)         59.3325         estimate D2E/DX2                !
 ! D105  D(12,13,14,32)         57.0652         estimate D2E/DX2                !
 ! D106  D(12,13,14,33)        176.1904         estimate D2E/DX2                !
 ! D107  D(12,13,14,34)        -63.6698         estimate D2E/DX2                !
 ! D108  D(15,13,14,32)        179.6733         estimate D2E/DX2                !
 ! D109  D(15,13,14,33)        -61.2015         estimate D2E/DX2                !
 ! D110  D(15,13,14,34)         58.9383         estimate D2E/DX2                !
 ! D111  D(31,13,14,32)        -64.158          estimate D2E/DX2                !
 ! D112  D(31,13,14,33)         54.9671         estimate D2E/DX2                !
 ! D113  D(31,13,14,34)        175.107          estimate D2E/DX2                !
 ! D114  D(12,13,15,35)         61.4485         estimate D2E/DX2                !
 ! D115  D(14,13,15,35)        -63.8609         estimate D2E/DX2                !
 ! D116  D(31,13,15,35)        179.2565         estimate D2E/DX2                !
 --------------------------------------------------------------------------------
 Trust Radius=3.00D-01 FncErr=1.00D-07 GrdErr=1.00D-07
 Number of steps in this run=    240 maximum allowed number of steps=    240.
 GradGradGradGradGradGradGradGradGradGradGradGradGradGradGradGradGradGrad

                          Input orientation:                          
 ---------------------------------------------------------------------
 Center     Atomic      Atomic             Coordinates (Angstroms)
 Number     Number       Type             X           Y           Z
 ---------------------------------------------------------------------
      1          6           0       -4.237300    2.853400   -1.691600
      2          6           0       -2.746500    2.836100   -2.126200
      3          6           0       -2.249300    1.502100   -2.685300
      4          6           0       -3.198500    0.749800   -3.643900
      5          6           0       -4.686200    1.003200   -3.402500
      6          6           0       -5.114700    1.941700   -2.531600
      7          8           0       -1.970000    0.756900   -1.512100
      8          6           0       -1.438900    1.569600   -0.581300
      9          6           0       -1.796500    2.935900   -0.956900
     10          6           0       -5.645900    0.114600   -4.205700
     11          6           0       -7.000700    0.756800   -4.604800
     12          6           0       -6.861300    2.021600   -5.489900
     13          6           0       -8.178400    2.696700   -5.922200
     14          6           0       -9.029500    3.220400   -4.760100
     15          8           0       -8.958300    1.789600   -6.662000
     16          6           0       -5.874800   -1.233500   -3.497400
     17          8           0       -0.775400    1.201300    0.384400
     18          6           0       -1.335700    4.030500   -0.322300
     19          1           0       -4.620600    3.873900   -1.728900
     20          1           0       -4.347600    2.531800   -0.653900
     21          1           0       -2.579900    3.615200   -2.872000
     22          1           0       -1.301400    1.650400   -3.210600
     23          1           0       -2.983200   -0.318000   -3.595800
     24          1           0       -2.975700    1.053500   -4.666500
     25          1           0       -6.180100    2.049600   -2.395300
     26          1           0       -5.138900   -0.106900   -5.147500
     27          1           0       -7.585000    0.976000   -3.711300
     28          1           0       -7.582900    0.015600   -5.154400
     29          1           0       -6.298400    1.763500   -6.388500
     30          1           0       -6.251900    2.764900   -4.975500
     31          1           0       -7.939000    3.534300   -6.581100
     32          1           0       -8.465100    3.926000   -4.150700
     33          1           0       -9.911000    3.744100   -5.132100
     34          1           0       -9.376500    2.419900   -4.107300
     35          1           0       -9.166300    1.042000   -6.097800
     36          1           0       -4.933700   -1.749100   -3.303100
     37          1           0       -6.374200   -1.096000   -2.537500
     38          1           0       -6.490100   -1.903900   -4.098400
     39          1           0       -0.655400    3.952200    0.516700
     40          1           0       -1.632200    5.022300   -0.630100
 ---------------------------------------------------------------------
                    Distance matrix (angstroms):
                    1          2          3          4          5
     1  C    0.000000
     2  C    1.552952   0.000000
     3  C    2.601076   1.529496   0.000000
     4  C    3.052165   2.619230   1.544620   0.000000
     5  C    2.559674   2.958192   2.588776   1.528312   0.000000
     6  C    1.518759   2.563722   2.902997   2.515881   1.350134
     7  O    3.093248   2.302856   1.417649   2.460454   3.318436
     8  C    3.272912   2.387584   2.255686   3.625987   4.338771
     9  C    2.550313   1.509875   2.290890   3.736925   4.250489
    10  C    3.975661   4.487472   3.971607   2.590148   1.534850
    11  C    4.529773   5.344639   5.178393   3.921747   2.619761
    12  C    4.690879   5.376752   5.422749   4.294333   3.182049
    13  C    5.784012   6.628317   6.859943   5.812097   4.627342
    14  C    5.702242   6.823577   7.295784   6.430422   5.061947
    15  O    6.937174   7.762416   7.804324   6.585242   5.430801
    16  C    4.758684   5.313012   4.613812   3.334295   2.534680
    17  O    4.361647   3.586212   3.418467   4.722549   5.447404
    18  C    3.417577   2.582829   3.579279   5.026534   5.466080
    19  H    1.090748   2.178790   3.487578   3.930597   3.323576
    20  H    1.091977   2.196312   3.096729   3.665522   3.163237
    21  H    2.172708   1.091316   2.146938   3.031338   3.397127
    22  H    3.517681   2.161046   1.093822   2.144252   3.451458
    23  H    3.905960   3.487707   2.163419   1.090351   2.164057
    24  H    3.698825   3.111803   2.157325   1.089763   2.127448
    25  H    2.217151   3.532790   3.979327   3.484024   2.083541
    26  H    4.638912   4.849029   4.123239   2.599981   2.117141
    27  H    4.337155   5.420664   5.458860   4.392845   2.915328
    28  H    5.589019   6.365216   6.062460   4.695064   3.526383
    29  H    5.243747   5.650988   5.493381   4.262604   3.477562
    30  H    3.853627   4.517899   4.781264   3.893204   2.833608
    31  H    6.170366   6.877185   7.188865   6.233211   5.204870
    32  H    5.007188   6.163511   6.830729   6.171075   4.835561
    33  H    6.694868   7.822401   8.349553   7.499215   6.148381
    34  H    5.695165   6.932163   7.325396   6.416514   4.950020
    35  H    6.854984   7.759268   7.726690   6.459229   5.228522
    36  H    4.925943   5.214690   4.261218   3.061301   2.765193
    37  H    4.569425   5.365705   4.877168   3.836166   2.829171
    38  H    5.787892   6.353874   5.619793   4.252449   3.491355
    39  H    4.349018   3.550113   4.335471   5.833808   6.348549
    40  H    3.552106   2.873926   4.122677   5.458071   5.759018
                    6          7          8          9         10
     6  C    0.000000
     7  O    3.511733   0.000000
     8  C    4.177755   1.344967   0.000000
     9  C    3.805071   2.255303   1.461413   0.000000
    10  C    2.534379   4.602203   5.740396   5.773415   0.000000
    11  C    3.042884   5.905314   6.912512   6.718582   1.551510
    12  C    3.436355   6.430177   7.328102   6.858297   2.600580
    13  C    4.631679   7.858501   8.672740   8.089504   4.003395
    14  C    4.682622   8.151986   8.820698   8.176892   4.626241
    15  O    5.644165   8.742098   9.672884   9.227868   4.450958
    16  C    3.404764   4.811504   6.003184   6.361648   1.539954
    17  O    5.280225   2.285010   1.228191   2.418795   6.780244
    18  C    4.850251   3.540398   2.476643   1.346552   6.999492
    19  H    2.149851   4.097362   4.092676   3.074308   4.617154
    20  H    2.112444   3.088650   3.064578   2.600619   4.488176
    21  H    3.056417   3.223536   3.276228   2.177791   4.840797
    22  H    3.884219   2.032307   2.634132   2.641363   4.714190
    23  H    3.283604   2.554171   3.877513   4.354298   2.765699
    24  H    3.149924   3.324100   4.395108   4.323780   2.867723
    25  H    1.079489   4.491777   5.099017   4.697922   2.703173
    26  H    3.322692   4.899409   6.111533   6.163716   1.092290
    27  H    2.902869   6.034295   6.922702   6.703332   2.178658
    28  H    4.084232   6.732052   7.815171   7.722019   2.159121
    29  H    4.038388   6.597543   7.574689   7.151497   2.812338
    30  H    2.818427   5.861900   6.625912   6.002414   2.825583
    31  H    5.187629   8.308891   9.061399   8.349851   4.753439
    32  H    4.217121   7.693616   8.225614   7.459952   4.741064
    33  H    5.745932   9.224275   9.859752   9.161364   5.676492
    34  H    4.568856   8.022274   8.727037   8.224821   4.386510
    35  H    5.471993   8.537954   9.509093   9.183118   4.102844
    36  H    3.774914   4.274486   5.534943   6.107037   2.189816
    37  H    3.288464   4.886887   5.940482   6.301575   2.186061
    38  H    4.374383   5.848086   7.067518   7.437914   2.190555
    39  H    5.763645   4.006762   2.737930   2.122845   7.869773
    40  H    5.023306   4.368715   3.458451   2.118220   7.278751
                   11         12         13         14         15
    11  C    0.000000
    12  C    1.550017   0.000000
    13  C    2.624068   1.541881   0.000000
    14  C    3.195227   2.582793   1.532680   0.000000
    15  O    3.021745   2.413514   1.406548   2.381067   0.000000
    16  C    2.540724   3.941943   5.160688   5.602122   5.353672
    17  O    7.990248   8.498145   9.839402   9.933419  10.814698
    18  C    7.819792   7.827645   8.942060   8.918794  10.164520
    19  H    4.863331   4.753617   5.623834   5.390142   6.891692
    20  H    5.079289   5.474111   6.515919   6.265400   7.609644
    21  H    5.542249   5.265297   6.441317   6.731874   7.640740
    22  H    5.935009   6.020422   7.465966   8.036752   8.399980
    23  H    4.279437   4.909277   6.441324   7.101663   7.038848
    24  H    4.036392   4.088165   5.598658   6.430607   6.349438
    25  H    2.688235   3.168812   4.104993   3.883572   5.098110
    26  H    2.122923   2.759422   4.207005   5.133982   4.525289
    27  H    1.089861   2.186422   2.863741   2.867733   3.354777
    28  H    1.091052   2.158078   2.851742   3.538201   2.704008
    29  H    2.165238   1.091308   2.150046   3.497592   2.674052
    30  H    2.174991   1.090170   2.147625   2.822931   3.334680
    31  H    3.535629   2.154162   1.092262   2.145638   2.022250
    32  H    3.520583   2.827078   2.175221   1.089856   3.333778
    33  H    4.203790   3.520752   2.173294   1.090728   2.658628
    34  H    2.942420   2.897664   2.192242   1.089659   2.664331
    35  H    2.645791   2.577243   1.935152   2.559997   0.959422
    36  H    3.499492   4.766122   6.095318   6.602602   6.324714
    37  H    2.845892   4.321269   5.394062   5.533704   5.658247
    38  H    2.756171   4.181341   5.228970   5.757156   5.128937
    39  H    8.758035   8.849839   9.981545   9.925004  11.186989
    40  H    7.925498   7.743729   8.733125   8.661627  10.025263
                   16         17         18         19         20
    16  C    0.000000
    17  O    6.855691   0.000000
    18  C    7.641622   2.969467   0.000000
    19  H    5.548526   5.137547   3.576816   0.000000
    20  H    4.959367   3.950811   3.380474   1.741088   0.000000
    21  H    5.895539   4.437034   2.867312   2.353308   3.036196
    22  H    5.414344   3.660928   3.742770   4.261042   4.073440
    23  H    3.034662   4.798400   5.686784   4.872209   4.317143
    24  H    3.873234   5.511330   5.515814   4.392021   4.490929
    25  H    3.476576   6.136540   5.629343   2.490823   2.573528
    26  H    2.129227   7.166131   7.407089   5.272782   5.270800
    27  H    2.802218   7.949602   7.737509   4.595150   4.716881
    28  H    2.687658   8.855859   8.859804   5.949433   6.087112
    29  H    4.185679   8.757384   8.158827   5.383370   6.105861
    30  H    4.279508   7.820833   6.886439   3.798872   4.728311
    31  H    6.041692  10.260519   9.111661   5.888204   7.002490
    32  H    5.810068   9.333949   8.092954   4.544008   5.578997
    33  H    6.613596  10.970724   9.836258   6.291816   7.243988
    34  H    5.097177   9.779534   9.031873   5.512666   6.101502
    35  H    4.772206  10.604315  10.178695   6.911609   7.421282
    36  H    1.090534   6.292374   7.431995   5.847586   5.068321
    37  H    1.090740   6.720242   7.521609   5.331871   4.562454
    38  H    1.090519   7.899086   8.720314   6.518630   6.010850
    39  H    8.381326   2.756693   1.082987   4.557594   4.125552
    40  H    8.084312   4.045165   1.079963   3.384777   3.684638
                   21         22         23         24         25
    21  H    0.000000
    22  H    2.368470   0.000000
    23  H    4.019527   2.617523   0.000000
    24  H    3.152649   2.297654   1.739962   0.000000
    25  H    3.954717   4.962438   4.155346   4.052005   0.000000
    26  H    5.057708   4.643931   2.664466   2.501464   3.648177
    27  H    5.720212   6.339491   4.781667   4.707872   2.204136
    28  H    6.572403   6.775557   4.868035   4.747797   3.703733
    29  H    5.442592   5.922993   4.808572   3.809163   4.005183
    30  H    4.316400   5.372563   4.700239   3.709159   2.678477
    31  H    6.517969   7.679003   6.950697   5.869788   4.776922
    32  H    6.030526   7.575008   6.954903   6.216978   3.438536
    33  H    7.672659   9.066474   8.176508   7.453489   4.927577
    34  H    7.010598   8.161093   6.973666   6.568866   3.644865
    35  H    7.772246   8.400162   6.807373   6.353918   4.862217
    36  H    5.873835   4.975817   2.436836   3.680651   4.099724
    37  H    6.058383   5.807674   3.636504   4.550032   3.154789
    38  H    6.874168   6.351680   3.881499   4.628170   4.315879
    39  H    3.911593   4.428133   6.369138   6.375878   6.528548
    40  H    2.811438   4.258887   6.256148   5.817980   5.712816
                   26         27         28         29         30
    26  H    0.000000
    27  H    3.036239   0.000000
    28  H    2.447078   1.733468   0.000000
    29  H    2.526444   3.072929   2.495616   0.000000
    30  H    3.084735   2.564278   3.059774   1.732493   0.000000
    31  H    4.811871   3.860825   3.813598   2.421651   2.452801
    32  H    5.321795   3.109686   4.132423   3.791931   2.631863
    33  H    6.132159   3.884756   4.395709   4.307226   3.791091
    34  H    5.042221   2.334767   3.177118   3.887086   3.261276
    35  H    4.294530   2.863608   2.109658   2.971518   3.566745
    36  H    2.478052   3.823897   3.682355   4.870365   4.991069
    37  H    3.052275   2.671521   3.089462   4.797154   4.567861
    38  H    2.481040   3.105234   2.448230   4.327948   4.756442
    39  H    8.286207   8.645988   9.780003   9.182355   7.930621
    40  H    7.681962   7.829570   8.997064   8.096442   6.732012
                   31         32         33         34         35
    31  H    0.000000
    32  H    2.517351   0.000000
    33  H    2.456095   1.756946   0.000000
    34  H    3.070502   1.760929   1.757672   0.000000
    35  H    2.819823   3.549695   2.964540   2.429996   0.000000
    36  H    6.905898   6.737653   7.635051   6.145386   5.789256
    37  H    6.343420   5.674043   6.532034   4.882584   5.004258
    38  H    6.151189   6.155574   6.683636   5.198714   4.453984
    39  H   10.178617   9.098171  10.845201   9.989340  11.164958
    40  H    8.797970   7.764343   9.510012   8.879053  10.124287
                   36         37         38         39         40
    36  H    0.000000
    37  H    1.757192   0.000000
    38  H    1.754664   1.761404   0.000000
    39  H    8.086998   8.216881   9.467670   0.000000
    40  H    7.993540   7.972348   9.143333   1.847810   0.000000
 Stoichiometry    C15H22O3
 Framework group  C1[X(C15H22O3)]
 Deg. of freedom   114
 Full point group                 C1      NOp   1
 Largest Abelian subgroup         C1      NOp   1
 Largest concise Abelian subgroup C1      NOp   1
                         Standard orientation:                         
 ---------------------------------------------------------------------
 Center     Atomic      Atomic             Coordinates (Angstroms)
 Number     Number       Type             X           Y           Z
 ---------------------------------------------------------------------
      1          6           0        1.201133   -1.258952   -0.681220
      2          6           0        2.159759   -0.978023    0.507804
      3          6           0        2.186559    0.473057    0.990509
      4          6           0        0.828338    1.202627    1.084388
      5          6           0       -0.230748    0.715191    0.096217
      6          6           0       -0.036076   -0.378128   -0.671649
      7          8           0        3.066022    1.092669    0.067279
      8          6           0        4.070598    0.249041   -0.229464
      9          6           0        3.615399   -1.093965    0.123887
     10          6           0       -1.512564    1.557115    0.033967
     11          6           0       -2.820513    0.788934   -0.292149
     12          6           0       -3.171768   -0.319494    0.732820
     13          6           0       -4.467069   -1.110444    0.460810
     14          6           0       -4.463025   -1.892950   -0.857058
     15          8           0       -5.566615   -0.233431    0.445848
     16          6           0       -1.340076    2.757598   -0.915004
     17          8           0        5.156621    0.578920   -0.698704
     18          6           0        4.401798   -2.186052    0.077768
     19          1           0        0.908024   -2.309575   -0.678474
     20          1           0        1.701822   -1.092155   -1.637203
     21          1           0        1.892454   -1.623717    1.346015
     22          1           0        2.657678    0.527323    1.976181
     23          1           0        0.989297    2.274860    0.969182
     24          1           0        0.427169    1.067158    2.088527
     25          1           0       -0.818676   -0.650260   -1.363587
     26          1           0       -1.656419    1.966550    1.036348
     27          1           0       -2.767651    0.377189   -1.299854
     28          1           0       -3.642301    1.506167   -0.317353
     29          1           0       -3.246519    0.128114    1.725298
     30          1           0       -2.348241   -1.030463    0.802081
     31          1           0       -4.622397   -1.814603    1.281218
     32          1           0       -3.622357   -2.585411   -0.896585
     33          1           0       -5.375149   -2.482238   -0.959324
     34          1           0       -4.397248   -1.239445   -1.726519
     35          1           0       -5.437251    0.398935   -0.263991
     36          1           0       -0.482446    3.370121   -0.634734
     37          1           0       -1.182830    2.429367   -1.943232
     38          1           0       -2.215854    3.407316   -0.904473
     39          1           0        5.439261   -2.122248   -0.226303
     40          1           0        4.020932   -3.161569    0.341637
 ---------------------------------------------------------------------
 Rotational constants (GHZ):      0.9299577      0.1755986      0.1583634
 Standard basis: VSTO-6G (5D, 7F)
 There are    94 symmetry adapted cartesian basis functions of A   symmetry.
 There are    94 symmetry adapted basis functions of A   symmetry.
    94 basis functions,   564 primitive gaussians,    94 cartesian basis functions
    50 alpha electrons       50 beta electrons
       nuclear repulsion energy       772.6849826778 Hartrees.
 Integral buffers will be    131072 words long.
 Regular integral format.
 Two-electron integral symmetry is turned off.
 Do NDO integrals.
 One-electron integrals computed using PRISM.
 NBasis=    94 RedAO= F EigKep=  0.00D+00  NBF=    94
 NBsUse=    94 1.00D-04 EigRej=  0.00D+00 NBFU=    94
 Simple Huckel Guess.
 Overlap will be assumed to be unity.
 Keep J ints in memory in canonical form, NReq=953478.
 Requested convergence on RMS density matrix=1.00D-08 within 128 cycles.
 Requested convergence on MAX density matrix=1.00D-06.
 Requested convergence on             energy=1.00D-06.
 No special actions if energy rises.
 SCF Done:  E(RPM6) = -0.189182799956     A.U. after   15 cycles
            NFock= 14  Conv=0.46D-08     -V/T= 0.9971

 **********************************************************************

            Population analysis using the SCF density.

 **********************************************************************

 Orbital symmetries:
       Occupied  (A) (A) (A) (A) (A) (A) (A) (A) (A) (A) (A) (A)
                 (A) (A) (A) (A) (A) (A) (A) (A) (A) (A) (A) (A)
                 (A) (A) (A) (A) (A) (A) (A) (A) (A) (A) (A) (A)
                 (A) (A) (A) (A) (A) (A) (A) (A) (A) (A) (A) (A)
                 (A) (A)
       Virtual   (A) (A) (A) (A) (A) (A) (A) (A) (A) (A) (A) (A)
                 (A) (A) (A) (A) (A) (A) (A) (A) (A) (A) (A) (A)
                 (A) (A) (A) (A) (A) (A) (A) (A) (A) (A) (A) (A)
                 (A) (A) (A) (A) (A) (A) (A) (A)
 The electronic state is 1-A.
 Alpha  occ. eigenvalues --   -1.20697  -1.15762  -1.13338  -1.08793  -1.06228
 Alpha  occ. eigenvalues --   -1.02542  -0.99976  -0.98065  -0.94061  -0.93017
 Alpha  occ. eigenvalues --   -0.87571  -0.85877  -0.83124  -0.80548  -0.76824
 Alpha  occ. eigenvalues --   -0.74870  -0.72137  -0.67158  -0.63852  -0.62284
 Alpha  occ. eigenvalues --   -0.61858  -0.61097  -0.59669  -0.58999  -0.58058
 Alpha  occ. eigenvalues --   -0.56211  -0.55236  -0.54901  -0.54214  -0.53429
 Alpha  occ. eigenvalues --   -0.52788  -0.51374  -0.50972  -0.50515  -0.50342
 Alpha  occ. eigenvalues --   -0.48725  -0.48371  -0.47619  -0.46790  -0.46363
 Alpha  occ. eigenvalues --   -0.45774  -0.45033  -0.43303  -0.42602  -0.42331
 Alpha  occ. eigenvalues --   -0.41272  -0.39816  -0.39161  -0.38858  -0.35592
 Alpha virt. eigenvalues --   -0.01721   0.03572   0.04217   0.05582   0.09166
 Alpha virt. eigenvalues --    0.10247   0.10747   0.11478   0.12202   0.12595
 Alpha virt. eigenvalues --    0.12916   0.13297   0.13700   0.13813   0.14143
 Alpha virt. eigenvalues --    0.14835   0.15346   0.15977   0.16885   0.17098
 Alpha virt. eigenvalues --    0.18031   0.18259   0.18975   0.19106   0.19354
 Alpha virt. eigenvalues --    0.19440   0.19907   0.20008   0.20493   0.20539
 Alpha virt. eigenvalues --    0.20635   0.20751   0.20878   0.20926   0.21275
 Alpha virt. eigenvalues --    0.21667   0.21859   0.22197   0.22417   0.22870
 Alpha virt. eigenvalues --    0.23219   0.23587   0.24386   0.24606
          Condensed to atoms (all electrons):
               1          2          3          4          5          6
     1  C    4.235115   0.000000   0.000000   0.000000   0.000000   0.000000
     2  C    0.000000   4.134500   0.000000   0.000000   0.000000   0.000000
     3  C    0.000000   0.000000   3.840488   0.000000   0.000000   0.000000
     4  C    0.000000   0.000000   0.000000   4.331304   0.000000   0.000000
     5  C    0.000000   0.000000   0.000000   0.000000   3.971911   0.000000
     6  C    0.000000   0.000000   0.000000   0.000000   0.000000   4.217363
     7  O    0.000000   0.000000   0.000000   0.000000   0.000000   0.000000
     8  C    0.000000   0.000000   0.000000   0.000000   0.000000   0.000000
     9  C    0.000000   0.000000   0.000000   0.000000   0.000000   0.000000
    10  C    0.000000   0.000000   0.000000   0.000000   0.000000   0.000000
    11  C    0.000000   0.000000   0.000000   0.000000   0.000000   0.000000
    12  C    0.000000   0.000000   0.000000   0.000000   0.000000   0.000000
    13  C    0.000000   0.000000   0.000000   0.000000   0.000000   0.000000
    14  C    0.000000   0.000000   0.000000   0.000000   0.000000   0.000000
    15  O    0.000000   0.000000   0.000000   0.000000   0.000000   0.000000
    16  C    0.000000   0.000000   0.000000   0.000000   0.000000   0.000000
    17  O    0.000000   0.000000   0.000000   0.000000   0.000000   0.000000
    18  C    0.000000   0.000000   0.000000   0.000000   0.000000   0.000000
    19  H    0.000000   0.000000   0.000000   0.000000   0.000000   0.000000
    20  H    0.000000   0.000000   0.000000   0.000000   0.000000   0.000000
    21  H    0.000000   0.000000   0.000000   0.000000   0.000000   0.000000
    22  H    0.000000   0.000000   0.000000   0.000000   0.000000   0.000000
    23  H    0.000000   0.000000   0.000000   0.000000   0.000000   0.000000
    24  H    0.000000   0.000000   0.000000   0.000000   0.000000   0.000000
    25  H    0.000000   0.000000   0.000000   0.000000   0.000000   0.000000
    26  H    0.000000   0.000000   0.000000   0.000000   0.000000   0.000000
    27  H    0.000000   0.000000   0.000000   0.000000   0.000000   0.000000
    28  H    0.000000   0.000000   0.000000   0.000000   0.000000   0.000000
    29  H    0.000000   0.000000   0.000000   0.000000   0.000000   0.000000
    30  H    0.000000   0.000000   0.000000   0.000000   0.000000   0.000000
    31  H    0.000000   0.000000   0.000000   0.000000   0.000000   0.000000
    32  H    0.000000   0.000000   0.000000   0.000000   0.000000   0.000000
    33  H    0.000000   0.000000   0.000000   0.000000   0.000000   0.000000
    34  H    0.000000   0.000000   0.000000   0.000000   0.000000   0.000000
    35  H    0.000000   0.000000   0.000000   0.000000   0.000000   0.000000
    36  H    0.000000   0.000000   0.000000   0.000000   0.000000   0.000000
    37  H    0.000000   0.000000   0.000000   0.000000   0.000000   0.000000
    38  H    0.000000   0.000000   0.000000   0.000000   0.000000   0.000000
    39  H    0.000000   0.000000   0.000000   0.000000   0.000000   0.000000
    40  H    0.000000   0.000000   0.000000   0.000000   0.000000   0.000000
               7          8          9         10         11         12
     1  C    0.000000   0.000000   0.000000   0.000000   0.000000   0.000000
     2  C    0.000000   0.000000   0.000000   0.000000   0.000000   0.000000
     3  C    0.000000   0.000000   0.000000   0.000000   0.000000   0.000000
     4  C    0.000000   0.000000   0.000000   0.000000   0.000000   0.000000
     5  C    0.000000   0.000000   0.000000   0.000000   0.000000   0.000000
     6  C    0.000000   0.000000   0.000000   0.000000   0.000000   0.000000
     7  O    6.420091   0.000000   0.000000   0.000000   0.000000   0.000000
     8  C    0.000000   3.371107   0.000000   0.000000   0.000000   0.000000
     9  C    0.000000   0.000000   4.209167   0.000000   0.000000   0.000000
    10  C    0.000000   0.000000   0.000000   4.056720   0.000000   0.000000
    11  C    0.000000   0.000000   0.000000   0.000000   4.261078   0.000000
    12  C    0.000000   0.000000   0.000000   0.000000   0.000000   4.371470
    13  C    0.000000   0.000000   0.000000   0.000000   0.000000   0.000000
    14  C    0.000000   0.000000   0.000000   0.000000   0.000000   0.000000
    15  O    0.000000   0.000000   0.000000   0.000000   0.000000   0.000000
    16  C    0.000000   0.000000   0.000000   0.000000   0.000000   0.000000
    17  O    0.000000   0.000000   0.000000   0.000000   0.000000   0.000000
    18  C    0.000000   0.000000   0.000000   0.000000   0.000000   0.000000
    19  H    0.000000   0.000000   0.000000   0.000000   0.000000   0.000000
    20  H    0.000000   0.000000   0.000000   0.000000   0.000000   0.000000
    21  H    0.000000   0.000000   0.000000   0.000000   0.000000   0.000000
    22  H    0.000000   0.000000   0.000000   0.000000   0.000000   0.000000
    23  H    0.000000   0.000000   0.000000   0.000000   0.000000   0.000000
    24  H    0.000000   0.000000   0.000000   0.000000   0.000000   0.000000
    25  H    0.000000   0.000000   0.000000   0.000000   0.000000   0.000000
    26  H    0.000000   0.000000   0.000000   0.000000   0.000000   0.000000
    27  H    0.000000   0.000000   0.000000   0.000000   0.000000   0.000000
    28  H    0.000000   0.000000   0.000000   0.000000   0.000000   0.000000
    29  H    0.000000   0.000000   0.000000   0.000000   0.000000   0.000000
    30  H    0.000000   0.000000   0.000000   0.000000   0.000000   0.000000
    31  H    0.000000   0.000000   0.000000   0.000000   0.000000   0.000000
    32  H    0.000000   0.000000   0.000000   0.000000   0.000000   0.000000
    33  H    0.000000   0.000000   0.000000   0.000000   0.000000   0.000000
    34  H    0.000000   0.000000   0.000000   0.000000   0.000000   0.000000
    35  H    0.000000   0.000000   0.000000   0.000000   0.000000   0.000000
    36  H    0.000000   0.000000   0.000000   0.000000   0.000000   0.000000
    37  H    0.000000   0.000000   0.000000   0.000000   0.000000   0.000000
    38  H    0.000000   0.000000   0.000000   0.000000   0.000000   0.000000
    39  H    0.000000   0.000000   0.000000   0.000000   0.000000   0.000000
    40  H    0.000000   0.000000   0.000000   0.000000   0.000000   0.000000
              13         14         15         16         17         18
     1  C    0.000000   0.000000   0.000000   0.000000   0.000000   0.000000
     2  C    0.000000   0.000000   0.000000   0.000000   0.000000   0.000000
     3  C    0.000000   0.000000   0.000000   0.000000   0.000000   0.000000
     4  C    0.000000   0.000000   0.000000   0.000000   0.000000   0.000000
     5  C    0.000000   0.000000   0.000000   0.000000   0.000000   0.000000
     6  C    0.000000   0.000000   0.000000   0.000000   0.000000   0.000000
     7  O    0.000000   0.000000   0.000000   0.000000   0.000000   0.000000
     8  C    0.000000   0.000000   0.000000   0.000000   0.000000   0.000000
     9  C    0.000000   0.000000   0.000000   0.000000   0.000000   0.000000
    10  C    0.000000   0.000000   0.000000   0.000000   0.000000   0.000000
    11  C    0.000000   0.000000   0.000000   0.000000   0.000000   0.000000
    12  C    0.000000   0.000000   0.000000   0.000000   0.000000   0.000000
    13  C    3.760660   0.000000   0.000000   0.000000   0.000000   0.000000
    14  C    0.000000   4.564290   0.000000   0.000000   0.000000   0.000000
    15  O    0.000000   0.000000   6.554344   0.000000   0.000000   0.000000
    16  C    0.000000   0.000000   0.000000   4.482958   0.000000   0.000000
    17  O    0.000000   0.000000   0.000000   0.000000   6.467812   0.000000
    18  C    0.000000   0.000000   0.000000   0.000000   0.000000   4.199432
    19  H    0.000000   0.000000   0.000000   0.000000   0.000000   0.000000
    20  H    0.000000   0.000000   0.000000   0.000000   0.000000   0.000000
    21  H    0.000000   0.000000   0.000000   0.000000   0.000000   0.000000
    22  H    0.000000   0.000000   0.000000   0.000000   0.000000   0.000000
    23  H    0.000000   0.000000   0.000000   0.000000   0.000000   0.000000
    24  H    0.000000   0.000000   0.000000   0.000000   0.000000   0.000000
    25  H    0.000000   0.000000   0.000000   0.000000   0.000000   0.000000
    26  H    0.000000   0.000000   0.000000   0.000000   0.000000   0.000000
    27  H    0.000000   0.000000   0.000000   0.000000   0.000000   0.000000
    28  H    0.000000   0.000000   0.000000   0.000000   0.000000   0.000000
    29  H    0.000000   0.000000   0.000000   0.000000   0.000000   0.000000
    30  H    0.000000   0.000000   0.000000   0.000000   0.000000   0.000000
    31  H    0.000000   0.000000   0.000000   0.000000   0.000000   0.000000
    32  H    0.000000   0.000000   0.000000   0.000000   0.000000   0.000000
    33  H    0.000000   0.000000   0.000000   0.000000   0.000000   0.000000
    34  H    0.000000   0.000000   0.000000   0.000000   0.000000   0.000000
    35  H    0.000000   0.000000   0.000000   0.000000   0.000000   0.000000
    36  H    0.000000   0.000000   0.000000   0.000000   0.000000   0.000000
    37  H    0.000000   0.000000   0.000000   0.000000   0.000000   0.000000
    38  H    0.000000   0.000000   0.000000   0.000000   0.000000   0.000000
    39  H    0.000000   0.000000   0.000000   0.000000   0.000000   0.000000
    40  H    0.000000   0.000000   0.000000   0.000000   0.000000   0.000000
              19         20         21         22         23         24
     1  C    0.000000   0.000000   0.000000   0.000000   0.000000   0.000000
     2  C    0.000000   0.000000   0.000000   0.000000   0.000000   0.000000
     3  C    0.000000   0.000000   0.000000   0.000000   0.000000   0.000000
     4  C    0.000000   0.000000   0.000000   0.000000   0.000000   0.000000
     5  C    0.000000   0.000000   0.000000   0.000000   0.000000   0.000000
     6  C    0.000000   0.000000   0.000000   0.000000   0.000000   0.000000
     7  O    0.000000   0.000000   0.000000   0.000000   0.000000   0.000000
     8  C    0.000000   0.000000   0.000000   0.000000   0.000000   0.000000
     9  C    0.000000   0.000000   0.000000   0.000000   0.000000   0.000000
    10  C    0.000000   0.000000   0.000000   0.000000   0.000000   0.000000
    11  C    0.000000   0.000000   0.000000   0.000000   0.000000   0.000000
    12  C    0.000000   0.000000   0.000000   0.000000   0.000000   0.000000
    13  C    0.000000   0.000000   0.000000   0.000000   0.000000   0.000000
    14  C    0.000000   0.000000   0.000000   0.000000   0.000000   0.000000
    15  O    0.000000   0.000000   0.000000   0.000000   0.000000   0.000000
    16  C    0.000000   0.000000   0.000000   0.000000   0.000000   0.000000
    17  O    0.000000   0.000000   0.000000   0.000000   0.000000   0.000000
    18  C    0.000000   0.000000   0.000000   0.000000   0.000000   0.000000
    19  H    0.860819   0.000000   0.000000   0.000000   0.000000   0.000000
    20  H    0.000000   0.845614   0.000000   0.000000   0.000000   0.000000
    21  H    0.000000   0.000000   0.853540   0.000000   0.000000   0.000000
    22  H    0.000000   0.000000   0.000000   0.884189   0.000000   0.000000
    23  H    0.000000   0.000000   0.000000   0.000000   0.826612   0.000000
    24  H    0.000000   0.000000   0.000000   0.000000   0.000000   0.843725
    25  H    0.000000   0.000000   0.000000   0.000000   0.000000   0.000000
    26  H    0.000000   0.000000   0.000000   0.000000   0.000000   0.000000
    27  H    0.000000   0.000000   0.000000   0.000000   0.000000   0.000000
    28  H    0.000000   0.000000   0.000000   0.000000   0.000000   0.000000
    29  H    0.000000   0.000000   0.000000   0.000000   0.000000   0.000000
    30  H    0.000000   0.000000   0.000000   0.000000   0.000000   0.000000
    31  H    0.000000   0.000000   0.000000   0.000000   0.000000   0.000000
    32  H    0.000000   0.000000   0.000000   0.000000   0.000000   0.000000
    33  H    0.000000   0.000000   0.000000   0.000000   0.000000   0.000000
    34  H    0.000000   0.000000   0.000000   0.000000   0.000000   0.000000
    35  H    0.000000   0.000000   0.000000   0.000000   0.000000   0.000000
    36  H    0.000000   0.000000   0.000000   0.000000   0.000000   0.000000
    37  H    0.000000   0.000000   0.000000   0.000000   0.000000   0.000000
    38  H    0.000000   0.000000   0.000000   0.000000   0.000000   0.000000
    39  H    0.000000   0.000000   0.000000   0.000000   0.000000   0.000000
    40  H    0.000000   0.000000   0.000000   0.000000   0.000000   0.000000
              25         26         27         28         29         30
     1  C    0.000000   0.000000   0.000000   0.000000   0.000000   0.000000
     2  C    0.000000   0.000000   0.000000   0.000000   0.000000   0.000000
     3  C    0.000000   0.000000   0.000000   0.000000   0.000000   0.000000
     4  C    0.000000   0.000000   0.000000   0.000000   0.000000   0.000000
     5  C    0.000000   0.000000   0.000000   0.000000   0.000000   0.000000
     6  C    0.000000   0.000000   0.000000   0.000000   0.000000   0.000000
     7  O    0.000000   0.000000   0.000000   0.000000   0.000000   0.000000
     8  C    0.000000   0.000000   0.000000   0.000000   0.000000   0.000000
     9  C    0.000000   0.000000   0.000000   0.000000   0.000000   0.000000
    10  C    0.000000   0.000000   0.000000   0.000000   0.000000   0.000000
    11  C    0.000000   0.000000   0.000000   0.000000   0.000000   0.000000
    12  C    0.000000   0.000000   0.000000   0.000000   0.000000   0.000000
    13  C    0.000000   0.000000   0.000000   0.000000   0.000000   0.000000
    14  C    0.000000   0.000000   0.000000   0.000000   0.000000   0.000000
    15  O    0.000000   0.000000   0.000000   0.000000   0.000000   0.000000
    16  C    0.000000   0.000000   0.000000   0.000000   0.000000   0.000000
    17  O    0.000000   0.000000   0.000000   0.000000   0.000000   0.000000
    18  C    0.000000   0.000000   0.000000   0.000000   0.000000   0.000000
    19  H    0.000000   0.000000   0.000000   0.000000   0.000000   0.000000
    20  H    0.000000   0.000000   0.000000   0.000000   0.000000   0.000000
    21  H    0.000000   0.000000   0.000000   0.000000   0.000000   0.000000
    22  H    0.000000   0.000000   0.000000   0.000000   0.000000   0.000000
    23  H    0.000000   0.000000   0.000000   0.000000   0.000000   0.000000
    24  H    0.000000   0.000000   0.000000   0.000000   0.000000   0.000000
    25  H    0.850475   0.000000   0.000000   0.000000   0.000000   0.000000
    26  H    0.000000   0.876477   0.000000   0.000000   0.000000   0.000000
    27  H    0.000000   0.000000   0.864449   0.000000   0.000000   0.000000
    28  H    0.000000   0.000000   0.000000   0.868808   0.000000   0.000000
    29  H    0.000000   0.000000   0.000000   0.000000   0.846861   0.000000
    30  H    0.000000   0.000000   0.000000   0.000000   0.000000   0.847650
    31  H    0.000000   0.000000   0.000000   0.000000   0.000000   0.000000
    32  H    0.000000   0.000000   0.000000   0.000000   0.000000   0.000000
    33  H    0.000000   0.000000   0.000000   0.000000   0.000000   0.000000
    34  H    0.000000   0.000000   0.000000   0.000000   0.000000   0.000000
    35  H    0.000000   0.000000   0.000000   0.000000   0.000000   0.000000
    36  H    0.000000   0.000000   0.000000   0.000000   0.000000   0.000000
    37  H    0.000000   0.000000   0.000000   0.000000   0.000000   0.000000
    38  H    0.000000   0.000000   0.000000   0.000000   0.000000   0.000000
    39  H    0.000000   0.000000   0.000000   0.000000   0.000000   0.000000
    40  H    0.000000   0.000000   0.000000   0.000000   0.000000   0.000000
              31         32         33         34         35         36
     1  C    0.000000   0.000000   0.000000   0.000000   0.000000   0.000000
     2  C    0.000000   0.000000   0.000000   0.000000   0.000000   0.000000
     3  C    0.000000   0.000000   0.000000   0.000000   0.000000   0.000000
     4  C    0.000000   0.000000   0.000000   0.000000   0.000000   0.000000
     5  C    0.000000   0.000000   0.000000   0.000000   0.000000   0.000000
     6  C    0.000000   0.000000   0.000000   0.000000   0.000000   0.000000
     7  O    0.000000   0.000000   0.000000   0.000000   0.000000   0.000000
     8  C    0.000000   0.000000   0.000000   0.000000   0.000000   0.000000
     9  C    0.000000   0.000000   0.000000   0.000000   0.000000   0.000000
    10  C    0.000000   0.000000   0.000000   0.000000   0.000000   0.000000
    11  C    0.000000   0.000000   0.000000   0.000000   0.000000   0.000000
    12  C    0.000000   0.000000   0.000000   0.000000   0.000000   0.000000
    13  C    0.000000   0.000000   0.000000   0.000000   0.000000   0.000000
    14  C    0.000000   0.000000   0.000000   0.000000   0.000000   0.000000
    15  O    0.000000   0.000000   0.000000   0.000000   0.000000   0.000000
    16  C    0.000000   0.000000   0.000000   0.000000   0.000000   0.000000
    17  O    0.000000   0.000000   0.000000   0.000000   0.000000   0.000000
    18  C    0.000000   0.000000   0.000000   0.000000   0.000000   0.000000
    19  H    0.000000   0.000000   0.000000   0.000000   0.000000   0.000000
    20  H    0.000000   0.000000   0.000000   0.000000   0.000000   0.000000
    21  H    0.000000   0.000000   0.000000   0.000000   0.000000   0.000000
    22  H    0.000000   0.000000   0.000000   0.000000   0.000000   0.000000
    23  H    0.000000   0.000000   0.000000   0.000000   0.000000   0.000000
    24  H    0.000000   0.000000   0.000000   0.000000   0.000000   0.000000
    25  H    0.000000   0.000000   0.000000   0.000000   0.000000   0.000000
    26  H    0.000000   0.000000   0.000000   0.000000   0.000000   0.000000
    27  H    0.000000   0.000000   0.000000   0.000000   0.000000   0.000000
    28  H    0.000000   0.000000   0.000000   0.000000   0.000000   0.000000
    29  H    0.000000   0.000000   0.000000   0.000000   0.000000   0.000000
    30  H    0.000000   0.000000   0.000000   0.000000   0.000000   0.000000
    31  H    0.876588   0.000000   0.000000   0.000000   0.000000   0.000000
    32  H    0.000000   0.837471   0.000000   0.000000   0.000000   0.000000
    33  H    0.000000   0.000000   0.828498   0.000000   0.000000   0.000000
    34  H    0.000000   0.000000   0.000000   0.838949   0.000000   0.000000
    35  H    0.000000   0.000000   0.000000   0.000000   0.689714   0.000000
    36  H    0.000000   0.000000   0.000000   0.000000   0.000000   0.843061
    37  H    0.000000   0.000000   0.000000   0.000000   0.000000   0.000000
    38  H    0.000000   0.000000   0.000000   0.000000   0.000000   0.000000
    39  H    0.000000   0.000000   0.000000   0.000000   0.000000   0.000000
    40  H    0.000000   0.000000   0.000000   0.000000   0.000000   0.000000
              37         38         39         40
     1  C    0.000000   0.000000   0.000000   0.000000
     2  C    0.000000   0.000000   0.000000   0.000000
     3  C    0.000000   0.000000   0.000000   0.000000
     4  C    0.000000   0.000000   0.000000   0.000000
     5  C    0.000000   0.000000   0.000000   0.000000
     6  C    0.000000   0.000000   0.000000   0.000000
     7  O    0.000000   0.000000   0.000000   0.000000
     8  C    0.000000   0.000000   0.000000   0.000000
     9  C    0.000000   0.000000   0.000000   0.000000
    10  C    0.000000   0.000000   0.000000   0.000000
    11  C    0.000000   0.000000   0.000000   0.000000
    12  C    0.000000   0.000000   0.000000   0.000000
    13  C    0.000000   0.000000   0.000000   0.000000
    14  C    0.000000   0.000000   0.000000   0.000000
    15  O    0.000000   0.000000   0.000000   0.000000
    16  C    0.000000   0.000000   0.000000   0.000000
    17  O    0.000000   0.000000   0.000000   0.000000
    18  C    0.000000   0.000000   0.000000   0.000000
    19  H    0.000000   0.000000   0.000000   0.000000
    20  H    0.000000   0.000000   0.000000   0.000000
    21  H    0.000000   0.000000   0.000000   0.000000
    22  H    0.000000   0.000000   0.000000   0.000000
    23  H    0.000000   0.000000   0.000000   0.000000
    24  H    0.000000   0.000000   0.000000   0.000000
    25  H    0.000000   0.000000   0.000000   0.000000
    26  H    0.000000   0.000000   0.000000   0.000000
    27  H    0.000000   0.000000   0.000000   0.000000
    28  H    0.000000   0.000000   0.000000   0.000000
    29  H    0.000000   0.000000   0.000000   0.000000
    30  H    0.000000   0.000000   0.000000   0.000000
    31  H    0.000000   0.000000   0.000000   0.000000
    32  H    0.000000   0.000000   0.000000   0.000000
    33  H    0.000000   0.000000   0.000000   0.000000
    34  H    0.000000   0.000000   0.000000   0.000000
    35  H    0.000000   0.000000   0.000000   0.000000
    36  H    0.000000   0.000000   0.000000   0.000000
    37  H    0.841824   0.000000   0.000000   0.000000
    38  H    0.000000   0.848937   0.000000   0.000000
    39  H    0.000000   0.000000   0.829160   0.000000
    40  H    0.000000   0.000000   0.000000   0.846767
 Mulliken charges:
               1
     1  C   -0.235115
     2  C   -0.134500
     3  C    0.159512
     4  C   -0.331304
     5  C    0.028089
     6  C   -0.217363
     7  O   -0.420091
     8  C    0.628893
     9  C   -0.209167
    10  C   -0.056720
    11  C   -0.261078
    12  C   -0.371470
    13  C    0.239340
    14  C   -0.564290
    15  O   -0.554344
    16  C   -0.482958
    17  O   -0.467812
    18  C   -0.199432
    19  H    0.139181
    20  H    0.154386
    21  H    0.146460
    22  H    0.115811
    23  H    0.173388
    24  H    0.156275
    25  H    0.149525
    26  H    0.123523
    27  H    0.135551
    28  H    0.131192
    29  H    0.153139
    30  H    0.152350
    31  H    0.123412
    32  H    0.162529
    33  H    0.171502
    34  H    0.161051
    35  H    0.310286
    36  H    0.156939
    37  H    0.158176
    38  H    0.151063
    39  H    0.170840
    40  H    0.153233
 Sum of Mulliken charges =   0.00000
 Mulliken charges with hydrogens summed into heavy atoms:
               1
     1  C    0.058452
     2  C    0.011960
     3  C    0.275322
     4  C   -0.001641
     5  C    0.028089
     6  C   -0.067838
     7  O   -0.420091
     8  C    0.628893
     9  C   -0.209167
    10  C    0.066803
    11  C    0.005665
    12  C   -0.065981
    13  C    0.362752
    14  C   -0.069209
    15  O   -0.244058
    16  C   -0.016780
    17  O   -0.467812
    18  C    0.124641
 Charge=              0.0000 electrons
 Dipole moment (field-independent basis, Debye):
    X=             -1.8463    Y=             -2.7133    Z=              1.1218  Tot=              3.4683
 N-N= 7.726849826778D+02 E-N=-1.414056739241D+03  KE=-6.593159777615D+01
 Calling FoFJK, ICntrl=      2127 FMM=F ISym2X=0 I1Cent= 0 IOpClX= 0 NMat=1 NMatS=1 NMatT=0.
 ***** Axes restored to original set *****
 -------------------------------------------------------------------
 Center     Atomic                   Forces (Hartrees/Bohr)
 Number     Number              X              Y              Z
 -------------------------------------------------------------------
      1        6           0.001397167   -0.017298161   -0.018394878
      2        6          -0.011493363    0.014761607    0.004192569
      3        6          -0.029528524    0.002472690   -0.044519688
      4        6          -0.016534355    0.010084712    0.017417994
      5        6           0.001453206    0.004894639    0.011141605
      6        6           0.013744767   -0.006852399   -0.008987416
      7        8           0.005778369   -0.068804485    0.004706061
      8        6           0.039396228   -0.000257959    0.063621813
      9        6          -0.001443089    0.054080386    0.015791053
     10        6           0.004614071    0.006654996    0.005414504
     11        6           0.006152342    0.010540630   -0.000825117
     12        6           0.000412308   -0.008257645    0.011100842
     13        6           0.006838914    0.003858971    0.022079508
     14        6           0.004995450    0.000746036    0.003186104
     15        8          -0.005930993   -0.003235665   -0.016326101
     16        6          -0.001015910    0.007774569    0.000903542
     17        8          -0.023528271   -0.000657089   -0.030951441
     18        6          -0.011170800   -0.016881032   -0.014667943
     19        1          -0.001875062    0.007506865   -0.001229632
     20        1           0.001590941   -0.002896895    0.009733750
     21        1           0.000147547    0.010804073   -0.005815824
     22        1           0.012954028   -0.000555003   -0.006357434
     23        1           0.001019576   -0.009978941    0.002891681
     24        1           0.003637078    0.003301632   -0.009537919
     25        1          -0.004484364    0.005362438    0.004608917
     26        1           0.008057206   -0.003408827   -0.014598570
     27        1          -0.003357524    0.003722392    0.006894044
     28        1          -0.004339237   -0.006697581   -0.004768847
     29        1           0.003741646   -0.003173771   -0.007761035
     30        1           0.005896243    0.005227471    0.005962818
     31        1          -0.000415950    0.005225754   -0.013295382
     32        1           0.000943555    0.001821903    0.002707885
     33        1          -0.003024304    0.000682591   -0.001643270
     34        1          -0.000842593   -0.001610555    0.001544542
     35        1          -0.006576251   -0.011757667    0.000338065
     36        1           0.002828326   -0.000547452    0.000939291
     37        1          -0.001035184    0.000139187    0.002907174
     38        1          -0.001509546   -0.001058459   -0.001613698
     39        1           0.000878255    0.002086913    0.000709930
     40        1           0.001628098    0.002179130    0.002500502
 -------------------------------------------------------------------
 Cartesian Forces:  Max     0.068804485 RMS     0.014148285

 GradGradGradGradGradGradGradGradGradGradGradGradGradGradGradGradGradGrad
 Berny optimization.
 FormGI is forming the generalized inverse of G from B-inverse, IUseBI=4.
 Internal  Forces:  Max     0.041053309 RMS     0.007581261
 Search for a local minimum.
 Step number   1 out of a maximum of  240
 All quantities printed in internal units (Hartrees-Bohrs-Radians)
 Mixed Optimization -- RFO/linear search
 Second derivative matrix not updated -- first step.
 ITU=  0
     Eigenvalues ---    0.00230   0.00230   0.00230   0.00237   0.00305
     Eigenvalues ---    0.00334   0.00347   0.00635   0.00931   0.01050
     Eigenvalues ---    0.01294   0.01514   0.01605   0.01607   0.01810
     Eigenvalues ---    0.02767   0.02796   0.02796   0.03070   0.03241
     Eigenvalues ---    0.03243   0.03497   0.03816   0.04004   0.04009
     Eigenvalues ---    0.04634   0.04693   0.04698   0.04731   0.04967
     Eigenvalues ---    0.05318   0.05333   0.05343   0.05363   0.05530
     Eigenvalues ---    0.05563   0.05606   0.05961   0.06307   0.07675
     Eigenvalues ---    0.07999   0.08535   0.08898   0.08979   0.09518
     Eigenvalues ---    0.09642   0.10659   0.12079   0.12375   0.12616
     Eigenvalues ---    0.15995   0.16000   0.16000   0.16000   0.16000
     Eigenvalues ---    0.16000   0.16000   0.16000   0.16000   0.16000
     Eigenvalues ---    0.16159   0.17162   0.17229   0.19127   0.19870
     Eigenvalues ---    0.19983   0.21888   0.21931   0.22321   0.23207
     Eigenvalues ---    0.24997   0.24999   0.24999   0.26377   0.26941
     Eigenvalues ---    0.27523   0.27587   0.27650   0.28353   0.28523
     Eigenvalues ---    0.28980   0.29177   0.29206   0.30014   0.30302
     Eigenvalues ---    0.34375   0.34549   0.34553   0.34585   0.34661
     Eigenvalues ---    0.34662   0.34691   0.34726   0.34727   0.34729
     Eigenvalues ---    0.34751   0.34753   0.34772   0.34793   0.34829
     Eigenvalues ---    0.34829   0.34836   0.34840   0.34852   0.35636
     Eigenvalues ---    0.35999   0.36056   0.40626   0.44552   0.52350
     Eigenvalues ---    0.52698   0.55598   0.55761   0.91844
 RFO step:  Lambda=-3.73264439D-02 EMin= 2.30000000D-03
 Linear search not attempted -- first point.
 Maximum step size (   0.300) exceeded in Quadratic search.
    -- Step size scaled by   0.971
 Iteration  1 RMS(Cart)=  0.08090660 RMS(Int)=  0.00125425
 Iteration  2 RMS(Cart)=  0.00203742 RMS(Int)=  0.00026334
 Iteration  3 RMS(Cart)=  0.00000242 RMS(Int)=  0.00026334
 Iteration  4 RMS(Cart)=  0.00000000 RMS(Int)=  0.00026334
 Variable       Old X    -DE/DX   Delta X   Delta X   Delta X     New X
                                 (Linear)    (Quad)   (Total)
    R1        2.93465  -0.01154   0.00000  -0.03396  -0.03405   2.90060
    R2        2.87004  -0.01480   0.00000  -0.04578  -0.04569   2.82435
    R3        2.06121   0.00772   0.00000   0.01950   0.01950   2.08071
    R4        2.06354   0.00994   0.00000   0.02519   0.02519   2.08873
    R5        2.89033   0.02501   0.00000   0.07471   0.07445   2.96478
    R6        2.85325   0.01186   0.00000   0.02262   0.02240   2.87565
    R7        2.06229   0.01171   0.00000   0.02961   0.02961   2.09190
    R8        2.91891  -0.01395   0.00000  -0.03908  -0.03917   2.87974
    R9        2.67897   0.04105   0.00000   0.08985   0.08969   2.76866
   R10        2.06702   0.01420   0.00000   0.03618   0.03618   2.10321
   R11        2.88809  -0.01574   0.00000  -0.04850  -0.04841   2.83968
   R12        2.06046   0.01010   0.00000   0.02547   0.02547   2.08593
   R13        2.05935   0.01061   0.00000   0.02671   0.02671   2.08607
   R14        2.55138  -0.01388   0.00000  -0.02629  -0.02613   2.52525
   R15        2.90045  -0.01577   0.00000  -0.04680  -0.04680   2.85365
   R16        2.03994   0.00554   0.00000   0.01353   0.01353   2.05346
   R17        2.54162   0.03992   0.00000   0.07085   0.07115   2.61277
   R18        2.76167   0.04077   0.00000   0.09800   0.09822   2.85989
   R19        2.32095  -0.03685   0.00000  -0.03743  -0.03743   2.28352
   R20        2.54461  -0.01862   0.00000  -0.03038  -0.03038   2.51424
   R21        2.93193  -0.00749   0.00000  -0.02327  -0.02327   2.90866
   R22        2.91009  -0.00397   0.00000  -0.01195  -0.01195   2.89814
   R23        2.06413   0.01702   0.00000   0.04315   0.04315   2.10728
   R24        2.92911  -0.01251   0.00000  -0.03870  -0.03870   2.89041
[...]
    31  H    0.000000   0.000000   0.000000   0.000000   0.000000   0.000000
    32  H    0.000000   0.000000   0.000000   0.000000   0.000000   0.000000
    33  H    0.000000   0.000000   0.000000   0.000000   0.000000   0.000000
    34  H    0.000000   0.000000   0.000000   0.000000   0.000000   0.000000
    35  H    0.000000   0.000000   0.000000   0.000000   0.000000   0.000000
    36  H    0.000000   0.000000   0.000000   0.000000   0.000000   0.000000
    37  H    0.000000   0.000000   0.000000   0.000000   0.000000   0.000000
    38  H    0.000000   0.000000   0.000000   0.000000   0.000000   0.000000
    39  H    0.000000   0.000000   0.000000   0.000000   0.000000   0.000000
    40  H    0.000000   0.000000   0.000000   0.000000   0.000000   0.000000
              13         14         15         16         17         18
     1  C    0.000000   0.000000   0.000000   0.000000   0.000000   0.000000
     2  C    0.000000   0.000000   0.000000   0.000000   0.000000   0.000000
     3  C    0.000000   0.000000   0.000000   0.000000   0.000000   0.000000
     4  C    0.000000   0.000000   0.000000   0.000000   0.000000   0.000000
     5  C    0.000000   0.000000   0.000000   0.000000   0.000000   0.000000
     6  C    0.000000   0.000000   0.000000   0.000000   0.000000   0.000000
     7  O    0.000000   0.000000   0.000000   0.000000   0.000000   0.000000
     8  C    0.000000   0.000000   0.000000   0.000000   0.000000   0.000000
     9  C    0.000000   0.000000   0.000000   0.000000   0.000000   0.000000
    10  C    0.000000   0.000000   0.000000   0.000000   0.000000   0.000000
    11  C    0.000000   0.000000   0.000000   0.000000   0.000000   0.000000
    12  C    0.000000   0.000000   0.000000   0.000000   0.000000   0.000000
    13  C    3.760640   0.000000   0.000000   0.000000   0.000000   0.000000
    14  C    0.000000   4.559777   0.000000   0.000000   0.000000   0.000000
    15  O    0.000000   0.000000   6.570971   0.000000   0.000000   0.000000
    16  C    0.000000   0.000000   0.000000   4.485031   0.000000   0.000000
    17  O    0.000000   0.000000   0.000000   0.000000   6.444811   0.000000
    18  C    0.000000   0.000000   0.000000   0.000000   0.000000   4.237316
    19  H    0.000000   0.000000   0.000000   0.000000   0.000000   0.000000
    20  H    0.000000   0.000000   0.000000   0.000000   0.000000   0.000000
    21  H    0.000000   0.000000   0.000000   0.000000   0.000000   0.000000
    22  H    0.000000   0.000000   0.000000   0.000000   0.000000   0.000000
    23  H    0.000000   0.000000   0.000000   0.000000   0.000000   0.000000
    24  H    0.000000   0.000000   0.000000   0.000000   0.000000   0.000000
    25  H    0.000000   0.000000   0.000000   0.000000   0.000000   0.000000
    26  H    0.000000   0.000000   0.000000   0.000000   0.000000   0.000000
    27  H    0.000000   0.000000   0.000000   0.000000   0.000000   0.000000
    28  H    0.000000   0.000000   0.000000   0.000000   0.000000   0.000000
    29  H    0.000000   0.000000   0.000000   0.000000   0.000000   0.000000
    30  H    0.000000   0.000000   0.000000   0.000000   0.000000   0.000000
    31  H    0.000000   0.000000   0.000000   0.000000   0.000000   0.000000
    32  H    0.000000   0.000000   0.000000   0.000000   0.000000   0.000000
    33  H    0.000000   0.000000   0.000000   0.000000   0.000000   0.000000
    34  H    0.000000   0.000000   0.000000   0.000000   0.000000   0.000000
    35  H    0.000000   0.000000   0.000000   0.000000   0.000000   0.000000
    36  H    0.000000   0.000000   0.000000   0.000000   0.000000   0.000000
    37  H    0.000000   0.000000   0.000000   0.000000   0.000000   0.000000
    38  H    0.000000   0.000000   0.000000   0.000000   0.000000   0.000000
    39  H    0.000000   0.000000   0.000000   0.000000   0.000000   0.000000
    40  H    0.000000   0.000000   0.000000   0.000000   0.000000   0.000000
              19         20         21         22         23         24
     1  C    0.000000   0.000000   0.000000   0.000000   0.000000   0.000000
     2  C    0.000000   0.000000   0.000000   0.000000   0.000000   0.000000
     3  C    0.000000   0.000000   0.000000   0.000000   0.000000   0.000000
     4  C    0.000000   0.000000   0.000000   0.000000   0.000000   0.000000
     5  C    0.000000   0.000000   0.000000   0.000000   0.000000   0.000000
     6  C    0.000000   0.000000   0.000000   0.000000   0.000000   0.000000
     7  O    0.000000   0.000000   0.000000   0.000000   0.000000   0.000000
     8  C    0.000000   0.000000   0.000000   0.000000   0.000000   0.000000
     9  C    0.000000   0.000000   0.000000   0.000000   0.000000   0.000000
    10  C    0.000000   0.000000   0.000000   0.000000   0.000000   0.000000
    11  C    0.000000   0.000000   0.000000   0.000000   0.000000   0.000000
    12  C    0.000000   0.000000   0.000000   0.000000   0.000000   0.000000
    13  C    0.000000   0.000000   0.000000   0.000000   0.000000   0.000000
    14  C    0.000000   0.000000   0.000000   0.000000   0.000000   0.000000
    15  O    0.000000   0.000000   0.000000   0.000000   0.000000   0.000000
    16  C    0.000000   0.000000   0.000000   0.000000   0.000000   0.000000
    17  O    0.000000   0.000000   0.000000   0.000000   0.000000   0.000000
    18  C    0.000000   0.000000   0.000000   0.000000   0.000000   0.000000
    19  H    0.860652   0.000000   0.000000   0.000000   0.000000   0.000000
    20  H    0.000000   0.843934   0.000000   0.000000   0.000000   0.000000
    21  H    0.000000   0.000000   0.846240   0.000000   0.000000   0.000000
    22  H    0.000000   0.000000   0.000000   0.871377   0.000000   0.000000
    23  H    0.000000   0.000000   0.000000   0.000000   0.817520   0.000000
    24  H    0.000000   0.000000   0.000000   0.000000   0.000000   0.836192
    25  H    0.000000   0.000000   0.000000   0.000000   0.000000   0.000000
    26  H    0.000000   0.000000   0.000000   0.000000   0.000000   0.000000
    27  H    0.000000   0.000000   0.000000   0.000000   0.000000   0.000000
    28  H    0.000000   0.000000   0.000000   0.000000   0.000000   0.000000
    29  H    0.000000   0.000000   0.000000   0.000000   0.000000   0.000000
    30  H    0.000000   0.000000   0.000000   0.000000   0.000000   0.000000
    31  H    0.000000   0.000000   0.000000   0.000000   0.000000   0.000000
    32  H    0.000000   0.000000   0.000000   0.000000   0.000000   0.000000
    33  H    0.000000   0.000000   0.000000   0.000000   0.000000   0.000000
    34  H    0.000000   0.000000   0.000000   0.000000   0.000000   0.000000
    35  H    0.000000   0.000000   0.000000   0.000000   0.000000   0.000000
    36  H    0.000000   0.000000   0.000000   0.000000   0.000000   0.000000
    37  H    0.000000   0.000000   0.000000   0.000000   0.000000   0.000000
    38  H    0.000000   0.000000   0.000000   0.000000   0.000000   0.000000
    39  H    0.000000   0.000000   0.000000   0.000000   0.000000   0.000000
    40  H    0.000000   0.000000   0.000000   0.000000   0.000000   0.000000
              25         26         27         28         29         30
     1  C    0.000000   0.000000   0.000000   0.000000   0.000000   0.000000
     2  C    0.000000   0.000000   0.000000   0.000000   0.000000   0.000000
     3  C    0.000000   0.000000   0.000000   0.000000   0.000000   0.000000
     4  C    0.000000   0.000000   0.000000   0.000000   0.000000   0.000000
     5  C    0.000000   0.000000   0.000000   0.000000   0.000000   0.000000
     6  C    0.000000   0.000000   0.000000   0.000000   0.000000   0.000000
     7  O    0.000000   0.000000   0.000000   0.000000   0.000000   0.000000
     8  C    0.000000   0.000000   0.000000   0.000000   0.000000   0.000000
     9  C    0.000000   0.000000   0.000000   0.000000   0.000000   0.000000
    10  C    0.000000   0.000000   0.000000   0.000000   0.000000   0.000000
    11  C    0.000000   0.000000   0.000000   0.000000   0.000000   0.000000
    12  C    0.000000   0.000000   0.000000   0.000000   0.000000   0.000000
    13  C    0.000000   0.000000   0.000000   0.000000   0.000000   0.000000
    14  C    0.000000   0.000000   0.000000   0.000000   0.000000   0.000000
    15  O    0.000000   0.000000   0.000000   0.000000   0.000000   0.000000
    16  C    0.000000   0.000000   0.000000   0.000000   0.000000   0.000000
    17  O    0.000000   0.000000   0.000000   0.000000   0.000000   0.000000
    18  C    0.000000   0.000000   0.000000   0.000000   0.000000   0.000000
    19  H    0.000000   0.000000   0.000000   0.000000   0.000000   0.000000
    20  H    0.000000   0.000000   0.000000   0.000000   0.000000   0.000000
    21  H    0.000000   0.000000   0.000000   0.000000   0.000000   0.000000
    22  H    0.000000   0.000000   0.000000   0.000000   0.000000   0.000000
    23  H    0.000000   0.000000   0.000000   0.000000   0.000000   0.000000
    24  H    0.000000   0.000000   0.000000   0.000000   0.000000   0.000000
    25  H    0.848731   0.000000   0.000000   0.000000   0.000000   0.000000
    26  H    0.000000   0.868854   0.000000   0.000000   0.000000   0.000000
    27  H    0.000000   0.000000   0.861573   0.000000   0.000000   0.000000
    28  H    0.000000   0.000000   0.000000   0.870172   0.000000   0.000000
    29  H    0.000000   0.000000   0.000000   0.000000   0.843156   0.000000
    30  H    0.000000   0.000000   0.000000   0.000000   0.000000   0.849251
    31  H    0.000000   0.000000   0.000000   0.000000   0.000000   0.000000
    32  H    0.000000   0.000000   0.000000   0.000000   0.000000   0.000000
    33  H    0.000000   0.000000   0.000000   0.000000   0.000000   0.000000
    34  H    0.000000   0.000000   0.000000   0.000000   0.000000   0.000000
    35  H    0.000000   0.000000   0.000000   0.000000   0.000000   0.000000
    36  H    0.000000   0.000000   0.000000   0.000000   0.000000   0.000000
    37  H    0.000000   0.000000   0.000000   0.000000   0.000000   0.000000
    38  H    0.000000   0.000000   0.000000   0.000000   0.000000   0.000000
    39  H    0.000000   0.000000   0.000000   0.000000   0.000000   0.000000
    40  H    0.000000   0.000000   0.000000   0.000000   0.000000   0.000000
              31         32         33         34         35         36
     1  C    0.000000   0.000000   0.000000   0.000000   0.000000   0.000000
     2  C    0.000000   0.000000   0.000000   0.000000   0.000000   0.000000
     3  C    0.000000   0.000000   0.000000   0.000000   0.000000   0.000000
     4  C    0.000000   0.000000   0.000000   0.000000   0.000000   0.000000
     5  C    0.000000   0.000000   0.000000   0.000000   0.000000   0.000000
     6  C    0.000000   0.000000   0.000000   0.000000   0.000000   0.000000
     7  O    0.000000   0.000000   0.000000   0.000000   0.000000   0.000000
     8  C    0.000000   0.000000   0.000000   0.000000   0.000000   0.000000
     9  C    0.000000   0.000000   0.000000   0.000000   0.000000   0.000000
    10  C    0.000000   0.000000   0.000000   0.000000   0.000000   0.000000
    11  C    0.000000   0.000000   0.000000   0.000000   0.000000   0.000000
    12  C    0.000000   0.000000   0.000000   0.000000   0.000000   0.000000
    13  C    0.000000   0.000000   0.000000   0.000000   0.000000   0.000000
    14  C    0.000000   0.000000   0.000000   0.000000   0.000000   0.000000
    15  O    0.000000   0.000000   0.000000   0.000000   0.000000   0.000000
    16  C    0.000000   0.000000   0.000000   0.000000   0.000000   0.000000
    17  O    0.000000   0.000000   0.000000   0.000000   0.000000   0.000000
    18  C    0.000000   0.000000   0.000000   0.000000   0.000000   0.000000
    19  H    0.000000   0.000000   0.000000   0.000000   0.000000   0.000000
    20  H    0.000000   0.000000   0.000000   0.000000   0.000000   0.000000
    21  H    0.000000   0.000000   0.000000   0.000000   0.000000   0.000000
    22  H    0.000000   0.000000   0.000000   0.000000   0.000000   0.000000
    23  H    0.000000   0.000000   0.000000   0.000000   0.000000   0.000000
    24  H    0.000000   0.000000   0.000000   0.000000   0.000000   0.000000
    25  H    0.000000   0.000000   0.000000   0.000000   0.000000   0.000000
    26  H    0.000000   0.000000   0.000000   0.000000   0.000000   0.000000
    27  H    0.000000   0.000000   0.000000   0.000000   0.000000   0.000000
    28  H    0.000000   0.000000   0.000000   0.000000   0.000000   0.000000
    29  H    0.000000   0.000000   0.000000   0.000000   0.000000   0.000000
    30  H    0.000000   0.000000   0.000000   0.000000   0.000000   0.000000
    31  H    0.873375   0.000000   0.000000   0.000000   0.000000   0.000000
    32  H    0.000000   0.835748   0.000000   0.000000   0.000000   0.000000
    33  H    0.000000   0.000000   0.827381   0.000000   0.000000   0.000000
    34  H    0.000000   0.000000   0.000000   0.838373   0.000000   0.000000
    35  H    0.000000   0.000000   0.000000   0.000000   0.692409   0.000000
    36  H    0.000000   0.000000   0.000000   0.000000   0.000000   0.843259
    37  H    0.000000   0.000000   0.000000   0.000000   0.000000   0.000000
    38  H    0.000000   0.000000   0.000000   0.000000   0.000000   0.000000
    39  H    0.000000   0.000000   0.000000   0.000000   0.000000   0.000000
    40  H    0.000000   0.000000   0.000000   0.000000   0.000000   0.000000
              37         38         39         40
     1  C    0.000000   0.000000   0.000000   0.000000
     2  C    0.000000   0.000000   0.000000   0.000000
     3  C    0.000000   0.000000   0.000000   0.000000
     4  C    0.000000   0.000000   0.000000   0.000000
     5  C    0.000000   0.000000   0.000000   0.000000
     6  C    0.000000   0.000000   0.000000   0.000000
     7  O    0.000000   0.000000   0.000000   0.000000
     8  C    0.000000   0.000000   0.000000   0.000000
     9  C    0.000000   0.000000   0.000000   0.000000
    10  C    0.000000   0.000000   0.000000   0.000000
    11  C    0.000000   0.000000   0.000000   0.000000
    12  C    0.000000   0.000000   0.000000   0.000000
    13  C    0.000000   0.000000   0.000000   0.000000
    14  C    0.000000   0.000000   0.000000   0.000000
    15  O    0.000000   0.000000   0.000000   0.000000
    16  C    0.000000   0.000000   0.000000   0.000000
    17  O    0.000000   0.000000   0.000000   0.000000
    18  C    0.000000   0.000000   0.000000   0.000000
    19  H    0.000000   0.000000   0.000000   0.000000
    20  H    0.000000   0.000000   0.000000   0.000000
    21  H    0.000000   0.000000   0.000000   0.000000
    22  H    0.000000   0.000000   0.000000   0.000000
    23  H    0.000000   0.000000   0.000000   0.000000
    24  H    0.000000   0.000000   0.000000   0.000000
    25  H    0.000000   0.000000   0.000000   0.000000
    26  H    0.000000   0.000000   0.000000   0.000000
    27  H    0.000000   0.000000   0.000000   0.000000
    28  H    0.000000   0.000000   0.000000   0.000000
    29  H    0.000000   0.000000   0.000000   0.000000
    30  H    0.000000   0.000000   0.000000   0.000000
    31  H    0.000000   0.000000   0.000000   0.000000
    32  H    0.000000   0.000000   0.000000   0.000000
    33  H    0.000000   0.000000   0.000000   0.000000
    34  H    0.000000   0.000000   0.000000   0.000000
    35  H    0.000000   0.000000   0.000000   0.000000
    36  H    0.000000   0.000000   0.000000   0.000000
    37  H    0.846623   0.000000   0.000000   0.000000
    38  H    0.000000   0.848220   0.000000   0.000000
    39  H    0.000000   0.000000   0.828578   0.000000
    40  H    0.000000   0.000000   0.000000   0.841609
 Mulliken charges:
               1
     1  C   -0.248762
     2  C   -0.143150
     3  C    0.170248
     4  C   -0.357822
     5  C    0.033978
     6  C   -0.226807
     7  O   -0.456651
     8  C    0.618526
     9  C   -0.156716
    10  C   -0.058167
    11  C   -0.258297
    12  C   -0.364607
    13  C    0.239360
    14  C   -0.559777
    15  O   -0.570971
    16  C   -0.485031
    17  O   -0.444811
    18  C   -0.237316
    19  H    0.139348
    20  H    0.156066
    21  H    0.153760
    22  H    0.128623
    23  H    0.182480
    24  H    0.163808
    25  H    0.151269
    26  H    0.131146
    27  H    0.138427
    28  H    0.129828
    29  H    0.156844
    30  H    0.150749
    31  H    0.126625
    32  H    0.164252
    33  H    0.172619
    34  H    0.161627
    35  H    0.307591
    36  H    0.156741
    37  H    0.153377
    38  H    0.151780
    39  H    0.171422
    40  H    0.158391
 Sum of Mulliken charges =   0.00000
 Mulliken charges with hydrogens summed into heavy atoms:
               1
     1  C    0.046653
     2  C    0.010610
     3  C    0.298872
     4  C   -0.011535
     5  C    0.033978
     6  C   -0.075538
     7  O   -0.456651
     8  C    0.618526
     9  C   -0.156716
    10  C    0.072979
    11  C    0.009958
    12  C   -0.057014
    13  C    0.365985
    14  C   -0.061278
    15  O   -0.263380
    16  C   -0.023133
    17  O   -0.444811
    18  C    0.092497
 Charge=              0.0000 electrons
 Dipole moment (field-independent basis, Debye):
    X=             -2.0749    Y=              0.9596    Z=             -5.1154  Tot=              5.6030
 N-N= 7.782966030211D+02 E-N=-1.425592479689D+03  KE=-6.590039233299D+01
 1|1|UNPC-MC-M1855-405-3|FOpt|RPM6|ZDO|C15H22O3|TEACHER|18-Sep-2019|0||
 # opt pm6 geom=connectivity||Molecule Name||0,1|C,-4.2095373344,2.1029
 751993,-1.067079102|C,-3.2309362503,2.8642226188,-1.9818712098|C,-2.86
 50253919,2.088120767,-3.2821503959|C,-3.5057439529,0.7088997695,-3.443
 6824799|C,-4.9333347753,0.7046293469,-2.9710751871|C,-5.2554691404,1.3
 736855047,-1.8538131904|O,-1.4126751623,1.8581209856,-3.241711352|C,-0
 .8397384421,2.421418829,-2.1060003051|C,-1.9048883624,3.1076842893,-1.
 3068562028|C,-5.9267658545,-0.0839504679,-3.7975587787|C,-6.9958996656
 ,0.8435474867,-4.4165281117|C,-6.3861607759,1.8268283949,-5.4200155146
 |C,-7.4263436996,2.6781868197,-6.1683448896|C,-8.3430744487,3.48492623
 32,-5.2529227258|O,-8.2108328954,1.8512777273,-7.0422031891|C,-6.58820
 03293,-1.1745655325,-2.9446843451|O,0.3416371338,2.3014097812,-1.92955
 5556|C,-1.6621700454,3.8065049289,-0.2029990866|H,-4.6697432636,2.8102
 69861,-0.3508072622|H,-3.6521155169,1.3660389163,-0.4465318372|H,-3.69
 94937514,3.8370559902,-2.267826839|H,-3.0099356051,2.71609957,-4.18549
 07031|H,-2.921020305,-0.0384577175,-2.8585655346|H,-3.4116788766,0.377
 4916251,-4.497098014|H,-6.2651310638,1.4052619408,-1.4572998327|H,-5.3
 841873394,-0.5928539981,-4.6365671002|H,-7.5233013479,1.3955331586,-3.
 6149973824|H,-7.7641312451,0.2243178753,-4.9199900625|H,-5.792078304,1
 .2691800741,-6.1734639356|H,-5.6708449224,2.494551658,-4.9019759615|H,
 -6.916568402,3.3462602992,-6.9053288062|H,-7.7786650766,4.2033388033,-
 4.6496585454|H,-9.0764422778,4.0478050582,-5.8456137365|H,-8.909482638
 4,2.8501767248,-4.5638176426|H,-8.7200816999,1.1887484413,-6.539481627
 4|H,-5.8344332785,-1.8124395284,-2.4675861179|H,-7.208001447,-0.753414
 7599,-2.1457243054|H,-7.2284923046,-1.8229887396,-3.5526681098|H,-0.66
 27090193,3.9266840096,0.2066361744|H,-2.4333029219,4.305418056,0.36990
 8804||Version=EM64W-G09RevD.01|State=1-A|HF=-0.2193958|RMSD=8.161e-009
 |RMSF=3.935e-006|Dipole=-1.7876087,0.3681496,1.2362353|PG=C01 [X(C15H2
 2O3)]||@


 Experience is what you get when you don't get what you want.
 -- Dan Stanford
 Job cpu time:       0 days  0 hours  0 minutes 48.0 seconds.
 File lengths (MBytes):  RWF=      9 Int=      0 D2E=      0 Chk=      4 Scr=      1
 Normal termination of Gaussian 09 at Wed Sep 18 19:07:52 2019.
